 Entering Gaussian System, Link 0=g09
 Input=water-td.com
 Output=water-td.log
 Initial command:
 /usr/local/apps/g09.d01/g09/l1.exe "/home/jmgonza4/calculations/tmp/87294/Gau-17951.inp" -scrdir="/home/jmgonza4/calculations/tmp/87294/"
 Entering Link 1 = /usr/local/apps/g09.d01/g09/l1.exe PID=     17952.
  
 Copyright (c) 1988,1990,1992,1993,1995,1998,2003,2009,2013,
            Gaussian, Inc.  All Rights Reserved.
  
 This is part of the Gaussian(R) 09 program.  It is based on
 the Gaussian(R) 03 system (copyright 2003, Gaussian, Inc.),
 the Gaussian(R) 98 system (copyright 1998, Gaussian, Inc.),
 the Gaussian(R) 94 system (copyright 1995, Gaussian, Inc.),
 the Gaussian 92(TM) system (copyright 1992, Gaussian, Inc.),
 the Gaussian 90(TM) system (copyright 1990, Gaussian, Inc.),
 the Gaussian 88(TM) system (copyright 1988, Gaussian, Inc.),
 the Gaussian 86(TM) system (copyright 1986, Carnegie Mellon
 University), and the Gaussian 82(TM) system (copyright 1983,
 Carnegie Mellon University). Gaussian is a federally registered
 trademark of Gaussian, Inc.
  
 This software contains proprietary and confidential information,
 including trade secrets, belonging to Gaussian, Inc.
  
 This software is provided under written license and may be
 used, copied, transmitted, or stored only in accord with that
 written license.
  
 The following legend is applicable only to US Government
 contracts under FAR:
  
                    RESTRICTED RIGHTS LEGEND
  
 Use, reproduction and disclosure by the US Government is
 subject to restrictions as set forth in subparagraphs (a)
 and (c) of the Commercial Computer Software - Restricted
 Rights clause in FAR 52.227-19.
  
 Gaussian, Inc.
 340 Quinnipiac St., Bldg. 40, Wallingford CT 06492
  
  
 ---------------------------------------------------------------
 Warning -- This program may not be used in any manner that
 competes with the business of Gaussian, Inc. or will provide
 assistance to any competitor of Gaussian, Inc.  The licensee
 of this program is prohibited from giving any competitor of
 Gaussian, Inc. access to this program.  By using this program,
 the user acknowledges that Gaussian, Inc. is engaged in the
 business of creating and licensing software in the field of
 computational chemistry and represents and warrants to the
 licensee that it is not a competitor of Gaussian, Inc. and that
 it will not use this program in any manner prohibited above.
 ---------------------------------------------------------------
  

 Cite this work as:
 Gaussian 09, Revision D.01,
 M. J. Frisch, G. W. Trucks, H. B. Schlegel, G. E. Scuseria, 
 M. A. Robb, J. R. Cheeseman, G. Scalmani, V. Barone, B. Mennucci, 
 G. A. Petersson, H. Nakatsuji, M. Caricato, X. Li, H. P. Hratchian, 
 A. F. Izmaylov, J. Bloino, G. Zheng, J. L. Sonnenberg, M. Hada, 
 M. Ehara, K. Toyota, R. Fukuda, J. Hasegawa, M. Ishida, T. Nakajima, 
 Y. Honda, O. Kitao, H. Nakai, T. Vreven, J. A. Montgomery, Jr., 
 J. E. Peralta, F. Ogliaro, M. Bearpark, J. J. Heyd, E. Brothers, 
 K. N. Kudin, V. N. Staroverov, T. Keith, R. Kobayashi, J. Normand, 
 K. Raghavachari, A. Rendell, J. C. Burant, S. S. Iyengar, J. Tomasi, 
 M. Cossi, N. Rega, J. M. Millam, M. Klene, J. E. Knox, J. B. Cross, 
 V. Bakken, C. Adamo, J. Jaramillo, R. Gomperts, R. E. Stratmann, 
 O. Yazyev, A. J. Austin, R. Cammi, C. Pomelli, J. W. Ochterski, 
 R. L. Martin, K. Morokuma, V. G. Zakrzewski, G. A. Voth, 
 P. Salvador, J. J. Dannenberg, S. Dapprich, A. D. Daniels, 
 O. Farkas, J. B. Foresman, J. V. Ortiz, J. Cioslowski, 
 and D. J. Fox, Gaussian, Inc., Wallingford CT, 2013.
 
 ******************************************
 Gaussian 09:  ES64L-G09RevD.01 24-Apr-2013
                22-Sep-2021 
 ******************************************
 %chk=water-td.chk
 %mem=16GB
 %nprocshared=8
 Will use up to    8 processors via shared memory.
 ----------------------------------------------------------------------
 # p b3lyp/gen empiricaldispersion=gd2 integral=ultrafine td(singlets,n
 states=10) guess=read geom=check
 ----------------------------------------------------------------------
 1/29=2,38=1/1;
 2/12=2,40=1/2;
 3/5=7,11=9,14=-4,16=1,25=1,30=1,74=-5,75=-5,116=-2,124=21/1,2,8,3;
 4/5=1/1;
 5/5=2,38=6/2;
 8/6=1,10=1,108=10/1;
 9/41=10,42=1,48=1,70=2/14;
 6/7=2,8=2,9=2,10=2/1;
 99/5=1,9=1/99;
 -----
 water
 -----
 Structure from the checkpoint file:  "water-td.chk"
 Charge =  0 Multiplicity = 1
 No Z-Matrix found in file; cartesian coordinates used.
  O                                                -0.442833624642      1.092106329993     -0.008662762543
  H                                                 0.519340918429      1.075700039299      0.015400200523
  H                                                -0.736097293786      0.575613630708      0.748872562021
 Recover connectivity data from disk.
                          Input orientation:                          
 ---------------------------------------------------------------------
 Center     Atomic      Atomic             Coordinates (Angstroms)
 Number     Number       Type             X           Y           Z
 ---------------------------------------------------------------------
      1          8           0       -0.442834    1.092106   -0.008663
      2          1           0        0.519341    1.075700    0.015400
      3          1           0       -0.736097    0.575614    0.748873
 ---------------------------------------------------------------------
                    Distance matrix (angstroms):
                    1          2          3
     1  O    0.000000
     2  H    0.962615   0.000000
     3  H    0.962615   1.537593   0.000000
 Stoichiometry    H2O
 Framework group  CS[SG(H2O)]
 Deg. of freedom     3
 Full point group                 CS      NOp   2
 Largest Abelian subgroup         CS      NOp   2
 Largest concise Abelian subgroup C1      NOp   1
                         Standard orientation:                         
 ---------------------------------------------------------------------
 Center     Atomic      Atomic             Coordinates (Angstroms)
 Number     Number       Type             X           Y           Z
 ---------------------------------------------------------------------
      1          8           0        0.000000    0.115858    0.000000
      2          1           0        0.768797   -0.463434    0.000000
      3          1           0       -0.768797   -0.463434    0.000000
 ---------------------------------------------------------------------
 Rotational constants (GHZ):    841.3016155    424.2082202    282.0104996
 General basis read from cards:  (5D, 7F)
 There are    20 symmetry adapted cartesian basis functions of A'  symmetry.
 There are     5 symmetry adapted cartesian basis functions of A"  symmetry.
 There are    19 symmetry adapted basis functions of A'  symmetry.
 There are     5 symmetry adapted basis functions of A"  symmetry.
    24 basis functions,    42 primitive gaussians,    25 cartesian basis functions
     5 alpha electrons        5 beta electrons
       nuclear repulsion energy         9.1398185832 Hartrees.
 NAtoms=    3 NActive=    3 NUniq=    3 SFac= 1.00D+00 NAtFMM=   60 NAOKFM=F Big=F
 Integral buffers will be    131072 words long.
 Regular integral format.
 Two-electron integral symmetry is turned on.
 Nuclear repulsion after empirical dispersion term =        9.1397756301 Hartrees.
 One-electron integrals computed using PRISM.
 NBasis=    24 RedAO= T EigKep=  6.20D-02  NBF=    19     5
 NBsUse=    24 1.00D-06 EigRej= -1.00D+00 NBFU=    19     5
 Initial guess from the checkpoint file:  "water-td.chk"
 B after Tr=     0.004239   -1.224501   -1.695940
         Rot=    0.842583   -0.445311    0.141537    0.267805 Ang= -65.17 deg.
 Initial guess orbital symmetries:
       Occupied  (A') (A') (A') (A') (A")
       Virtual   (A') (A') (A') (A') (A") (A') (A') (A') (A') (A')
                 (A') (A") (A") (A') (A') (A") (A') (A') (A')
 Keep R1 ints in memory in symmetry-blocked form, NReq=928973.
 Requested convergence on RMS density matrix=1.00D-08 within 128 cycles.
 Requested convergence on MAX density matrix=1.00D-06.
 Requested convergence on             energy=1.00D-06.
 No special actions if energy rises.
 SCF Done:  E(RB3LYP) =  -76.4339762675     A.U. after    1 cycles
            NFock=  1  Conv=0.13D-08     -V/T= 2.0012
 DoSCS=F DFT=T ScalE2(SS,OS)=  1.000000  1.000000
 ExpMin= 1.03D-01 ExpMax= 8.59D+03 ExpMxC= 1.30D+03 IAcc=3 IRadAn=         5 AccDes= 0.00D+00
 HarFok:  IExCor=  205 AccDes= 0.00D+00 IRadAn=         5 IDoV=-2 UseB2=F ITyADJ=14
 ICtDFT= 12500011 ScaDFX=  1.000000  1.000000  1.000000  1.000000
 Range of M.O.s used for correlation:     2    24
 NBasis=    24 NAE=     5 NBE=     5 NFC=     1 NFV=     0
 NROrb=     23 NOA=     4 NOB=     4 NVA=    19 NVB=    19
 Keep R1, R2, and R3 ints in memory in symmetry-blocked form, NReq=9295998.
 Orbital symmetries:
       Occupied  (A') (A') (A') (A') (A")
       Virtual   (A') (A') (A') (A') (A") (A') (A') (A') (A') (A')
                 (A') (A") (A") (A') (A') (A") (A') (A') (A')
    40 initial guesses have been made.
 Convergence on wavefunction:    0.001000000000000
 Iteration     1 Dimension    40 NMult     0 NNew     40
 CISAX will form    40 AO SS matrices at one time.
 New state      2 was old state      3
 New state      3 was old state      2
 New state      6 was old state      7
 New state      7 was old state      6
 Iteration     2 Dimension    60 NMult    40 NNew     20
 Iteration     3 Dimension    75 NMult    60 NNew     15
 ***********************************************************************
 Excited states from <AA,BB:AA,BB> singles matrix:
 ***********************************************************************
 
 Ground to excited state transition densities written to RWF  633
 Ground to excited state transition electric dipole moments (Au):
       state          X           Y           Z        Dip. S.      Osc.
         1         0.0000      0.0000      0.3672      0.1348      0.0238
         2         0.0000      0.0000      0.0000      0.0000      0.0000
         3         0.0000      0.6100      0.0000      0.3721      0.0862
         4         0.4466      0.0000      0.0000      0.1995      0.0558
         5         0.8467      0.0000      0.0000      0.7168      0.2419
         6         0.0000      0.0000      0.0000      0.0000      0.0000
         7         0.0000      0.4709      0.0000      0.2218      0.0896
         8         0.0000      0.0000      0.5505      0.3030      0.1322
         9         0.6152      0.0000      0.0000      0.3784      0.1795
        10         0.0000     -0.0942      0.0000      0.0089      0.0043
 Ground to excited state transition velocity dipole moments (Au):
       state          X           Y           Z        Dip. S.      Osc.
         1         0.0000      0.0000     -0.2001      0.0401      0.1007
         2         0.0000      0.0000      0.0000      0.0000      0.0000
         3         0.0000     -0.2877      0.0000      0.0828      0.1588
         4        -0.1855      0.0000      0.0000      0.0344      0.0546
         5        -0.4172      0.0000      0.0000      0.1741      0.2293
         6         0.0000      0.0000      0.0000      0.0000      0.0000
         7         0.0000     -0.2788      0.0000      0.0777      0.0855
         8         0.0000      0.0000     -0.3871      0.1499      0.1527
         9        -0.4684      0.0000      0.0000      0.2194      0.2057
        10         0.0000      0.0703      0.0000      0.0049      0.0046
 Ground to excited state transition magnetic dipole moments (Au):
       state          X           Y           Z
         1         0.1783      0.0000      0.0000
         2         0.0000     -0.2600      0.0000
         3         0.0000      0.0000      0.0000
         4         0.0000      0.0000      0.2636
         5         0.0000      0.0000     -0.1180
         6         0.0000     -0.3369      0.0000
         7         0.0000      0.0000      0.0000
         8        -0.2909      0.0000      0.0000
         9         0.0000      0.0000      0.5980
        10         0.0000      0.0000      0.0000
 Ground to excited state transition velocity quadrupole moments (Au):
       state          XX          YY          ZZ          XY          XZ          YZ
         1         0.0000      0.0000      0.0000      0.0000      0.0000      0.1001
         2         0.0000      0.0000      0.0000      0.0000      0.2891      0.0000
         3         0.1345      0.2361      0.0043      0.0000      0.0000      0.0000
         4         0.0000      0.0000      0.0000      0.3928      0.0000      0.0000
         5         0.0000      0.0000      0.0000      0.3571      0.0000      0.0000
         6         0.0000      0.0000      0.0000      0.0000     -0.3628      0.0000
         7         1.2277      0.3884      0.1861      0.0000      0.0000      0.0000
         8         0.0000      0.0000      0.0000      0.0000      0.0000      0.1001
         9         0.0000      0.0000      0.0000     -0.2065      0.0000      0.0000
        10        -0.4950      0.2718      0.0738      0.0000      0.0000      0.0000
 <0|del|b> * <b|rxdel|0> + <0|del|b> * <b|delr+rdel|0>
 Rotatory Strengths (R) in cgs (10**-40 erg-esu-cm/Gauss)
       state          XX          YY          ZZ    R(velocity)    E-M Angle
         1         0.0000      0.0000      0.0000      0.0000       90.00
         2         0.0000      0.0000      0.0000      0.0000       90.00
         3         0.0000      0.0000      0.0000      0.0000       90.00
         4         0.0000      0.0000      0.0000      0.0000       90.00
         5         0.0000      0.0000      0.0000      0.0000       90.00
         6         0.0000      0.0000      0.0000      0.0000       90.00
         7         0.0000      0.0000      0.0000      0.0000       90.00
         8         0.0000      0.0000      0.0000      0.0000       90.00
         9         0.0000      0.0000      0.0000      0.0000       90.00
        10         0.0000      0.0000      0.0000      0.0000       90.00
 1/2[<0|r|b>*<b|rxdel|0> + (<0|rxdel|b>*<b|r|0>)*]
 Rotatory Strengths (R) in cgs (10**-40 erg-esu-cm/Gauss)
       state          XX          YY          ZZ     R(length)
         1         0.0000      0.0000      0.0000      0.0000
         2         0.0000      0.0000      0.0000      0.0000
         3         0.0000      0.0000      0.0000      0.0000
         4         0.0000      0.0000      0.0000      0.0000
         5         0.0000      0.0000      0.0000      0.0000
         6         0.0000      0.0000      0.0000      0.0000
         7         0.0000      0.0000      0.0000      0.0000
         8         0.0000      0.0000      0.0000      0.0000
         9         0.0000      0.0000      0.0000      0.0000
        10         0.0000      0.0000      0.0000      0.0000
  1/2[<0|del|b>*<b|r|0> + (<0|r|b>*<b|del|0>)*] (Au)
       state          X           Y           Z        Dip. S.   Osc.(frdel)
         1         0.0000      0.0000     -0.0735      0.0735      0.0490
         2         0.0000      0.0000      0.0000      0.0000      0.0000
         3         0.0000     -0.1755      0.0000      0.1755      0.1170
         4        -0.0829      0.0000      0.0000      0.0829      0.0552
         5        -0.3533      0.0000      0.0000      0.3533      0.2355
         6         0.0000      0.0000      0.0000      0.0000      0.0000
         7         0.0000     -0.1313      0.0000      0.1313      0.0875
         8         0.0000      0.0000     -0.2131      0.2131      0.1421
         9        -0.2882      0.0000      0.0000      0.2882      0.1921
        10         0.0000     -0.0066      0.0000      0.0066      0.0044

 Excitation energies and oscillator strengths:
 
 Excited State   1:      Singlet-A"     7.2153 eV  171.83 nm  f=0.0238  <S**2>=0.000
       5 ->  6         0.70699
 This state for optimization and/or second-order correction.
 Total Energy, E(TD-HF/TD-KS) =  -76.1688184979    
 Copying the excited state density for this state as the 1-particle RhoCI density.
 
 Excited State   2:      Singlet-A"     9.1350 eV  135.72 nm  f=0.0000  <S**2>=0.000
       5 ->  7         0.70569
 
 Excited State   3:      Singlet-A'     9.4584 eV  131.08 nm  f=0.0862  <S**2>=0.000
       4 ->  6         0.70452
 
 Excited State   4:      Singlet-A'    11.4233 eV  108.54 nm  f=0.0558  <S**2>=0.000
       4 ->  7         0.70503
 
 Excited State   5:      Singlet-A'    13.7744 eV   90.01 nm  f=0.2419  <S**2>=0.000
       3 ->  6         0.70370
 
 Excited State   6:      Singlet-A"    16.3071 eV   76.03 nm  f=0.0000  <S**2>=0.000
       5 ->  8         0.70587
 
 Excited State   7:      Singlet-A'    16.4972 eV   75.15 nm  f=0.0896  <S**2>=0.000
       3 ->  7         0.69136
 
 Excited State   8:      Singlet-A"    17.8092 eV   69.62 nm  f=0.1322  <S**2>=0.000
       5 ->  9         0.70607
 
 Excited State   9:      Singlet-A'    19.3567 eV   64.05 nm  f=0.1795  <S**2>=0.000
       3 ->  9         0.14675
       4 ->  8         0.68966
 
 Excited State  10:      Singlet-A'    19.6466 eV   63.11 nm  f=0.0043  <S**2>=0.000
       4 ->  9         0.69319
 SavETr:  write IOETrn=   770 NScale= 10 NData=  16 NLR=1 NState=   10 LETran=     190.

 **********************************************************************

            Population analysis using the SCF density.

 **********************************************************************

 Orbital symmetries:
       Occupied  (A') (A') (A') (A') (A")
       Virtual   (A') (A') (A') (A') (A") (A') (A') (A') (A') (A')
                 (A') (A") (A") (A') (A') (A") (A') (A') (A')
 The electronic state is 1-A'.
 Alpha  occ. eigenvalues --  -19.10286  -1.00659  -0.53108  -0.37141  -0.29790
 Alpha virt. eigenvalues --    0.02517   0.10149   0.37815   0.41189   0.76344
 Alpha virt. eigenvalues --    0.77726   0.89200   1.16425   1.99981   2.04498
 Alpha virt. eigenvalues --    2.76672   2.77804   2.80821   3.17342   3.48395
 Alpha virt. eigenvalues --    4.75119   4.85777   4.99808  49.73417
          Condensed to atoms (all electrons):
               1          2          3
     1  O    8.295295   0.251069   0.251069
     2  H    0.251069   0.389638  -0.039423
     3  H    0.251069  -0.039423   0.389638
 Mulliken charges:
               1
     1  O   -0.797433
     2  H    0.398716
     3  H    0.398716
 Sum of Mulliken charges =   0.00000
 Mulliken charges with hydrogens summed into heavy atoms:
               1
     1  O    0.000000
 Electronic spatial extent (au):  <R**2>=             19.3221
 Charge=              0.0000 electrons
 Dipole moment (field-independent basis, Debye):
    X=              0.0000    Y=             -2.2605    Z=              0.0000  Tot=              2.2605
 Quadrupole moment (field-independent basis, Debye-Ang):
   XX=             -4.2086   YY=             -6.1801   ZZ=             -7.3434
   XY=              0.0000   XZ=              0.0000   YZ=              0.0000
 Traceless Quadrupole moment (field-independent basis, Debye-Ang):
   XX=              1.7021   YY=             -0.2694   ZZ=             -1.4327
   XY=              0.0000   XZ=              0.0000   YZ=              0.0000
 Octapole moment (field-independent basis, Debye-Ang**2):
  XXX=              0.0000  YYY=             -1.3673  ZZZ=              0.0000  XYY=              0.0000
  XXY=             -1.2507  XXZ=              0.0000  XZZ=              0.0000  YZZ=             -0.3811
  YYZ=              0.0000  XYZ=              0.0000
 Hexadecapole moment (field-independent basis, Debye-Ang**3):
 XXXX=             -6.0914 YYYY=             -6.4891 ZZZZ=             -5.5800 XXXY=              0.0000
 XXXZ=              0.0000 YYYX=              0.0000 YYYZ=              0.0000 ZZZX=              0.0000
 ZZZY=              0.0000 XXYY=             -1.8059 XXZZ=             -2.1941 YYZZ=             -2.0575
 XXYZ=              0.0000 YYXZ=              0.0000 ZZXY=              0.0000
 N-N= 9.139775630098D+00 E-N=-1.994356031442D+02  KE= 7.634512317653D+01
 Symmetry A'   KE= 7.166650673413D+01
 Symmetry A"   KE= 4.678616442403D+00
 1\1\GINC-N2J6-5\SP\RB3LYP TD-FC\Gen\H2O1\JMGONZA4\22-Sep-2021\0\\# p b
 3lyp/gen empiricaldispersion=gd2 integral=ultrafine td(singlets,nstate
 s=10) guess=read geom=check\\water\\0,1\O,-0.4428336246,1.09210633,-0.
 0086627625\H,0.5193409184,1.0757000393,0.0154002005\H,-0.7360972938,0.
 5756136307,0.748872562\\Version=ES64L-G09RevD.01\State=1-A'\HF=-76.433
 9763\RMSD=1.341e-09\PG=CS [SG(H2O1)]\\@


 ALMOST ANYTHING IS EASIER TO GET INTO THAN OUT OF.

                         -- AGNES ALLEN'S LAW FROM
                PAUL DICKSON'S "THE OFFICIAL RULES"
 Job cpu time:       0 days  0 hours  1 minutes 31.2 seconds.
 File lengths (MBytes):  RWF=   2064 Int=      0 D2E=      0 Chk=     32 Scr=     32
 Normal termination of Gaussian 09 at Wed Sep 22 21:55:41 2021.
