water                                                                   
Freq      RB3LYP                                                      Gen                 
Number of atoms                            I                3
Info1-9                                    I   N=           9
          22          22        1002           0           0         100
           6          18        -502
Charge                                     I                0
Multiplicity                               I                1
Number of electrons                        I               10
Number of alpha electrons                  I                5
Number of beta electrons                   I                5
Number of basis functions                  I               24
Number of independent functions            I               24
Number of point charges in /Mol/           I                0
Number of translation vectors              I                0
Atomic numbers                             I   N=           3
           8           1           1
Nuclear charges                            R   N=           3
  8.00000000E+00  1.00000000E+00  1.00000000E+00
Current cartesian coordinates              R   N=           9
 -8.36834273E-01  2.06378187E+00 -1.63702488E-02  9.81412105E-01  2.03277848E+00
  2.91021614E-02 -1.39102229E+00  1.08775212E+00  1.41516405E+00
Force Field                                I                0
Int Atom Types                             I   N=           3
           0           0           0
MM charges                                 R   N=           3
  0.00000000E+00  0.00000000E+00  0.00000000E+00
Integer atomic weights                     I   N=           3
          16           1           1
Real atomic weights                        R   N=           3
  1.59949146E+01  1.00782504E+00  1.00782504E+00
Atom fragment info                         I   N=           3
           0           0           0
Atom residue num                           I   N=           3
           0           0           0
Nuclear spins                              I   N=           3
           0           1           1
Nuclear ZEff                               R   N=           3
 -5.60000000E+00 -1.00000000E+00 -1.00000000E+00
Nuclear ZNuc                               R   N=           3
  8.00000000E+00  1.00000000E+00  1.00000000E+00
Nuclear QMom                               R   N=           3
  0.00000000E+00  0.00000000E+00  0.00000000E+00
Nuclear GFac                               R   N=           3
  0.00000000E+00  2.79284600E+00  2.79284600E+00
MicOpt                                     I   N=           3
          -1          -1          -1
Number of contracted shells                I               11
Number of primitive shells                 I               22
Pure/Cartesian d shells                    I                0
Pure/Cartesian f shells                    I                0
Highest angular momentum                   I                2
Largest degree of contraction              I                6
Shell types                                I   N=          11
           0          -1          -1          -1          -2           0
           0           0           0           0           0
Number of primitives per shell             I   N=          11
           6           3           1           1           1           3
           1           1           3           1           1
Shell to atom map                          I   N=          11
           1           1           1           1           1           2
           2           2           3           3           3
Primitive exponents                        R   N=          22
  8.58850000E+03  1.29723000E+03  2.99296000E+02  8.73771000E+01  2.56789000E+01
  3.74004000E+00  4.21175000E+01  9.62837000E+00  2.85332000E+00  9.05661000E-01
  2.55611000E-01  1.29200000E+00  3.38650000E+01  5.09479000E+00  1.15879000E+00
  3.25840000E-01  1.02741000E-01  3.38650000E+01  5.09479000E+00  1.15879000E+00
  3.25840000E-01  1.02741000E-01
Contraction coefficients                   R   N=          22
  1.89515008E-03  1.43859006E-02  7.07320031E-02  2.40001011E-01  5.94797026E-01
  2.80802012E-01  1.13889012E-01  9.20811101E-01 -3.27447036E-03  1.00000000E+00
  1.00000000E+00  1.00000000E+00  2.54938145E-02  1.90373109E-01  8.52161486E-01
  1.00000000E+00  1.00000000E+00  2.54938145E-02  1.90373109E-01  8.52161486E-01
  1.00000000E+00  1.00000000E+00
P(S=P) Contraction coefficients            R   N=          22
  0.00000000E+00  0.00000000E+00  0.00000000E+00  0.00000000E+00  0.00000000E+00
  0.00000000E+00  3.65113974E-02  2.37152983E-01  8.19701941E-01  1.00000000E+00
  1.00000000E+00  0.00000000E+00  0.00000000E+00  0.00000000E+00  0.00000000E+00
  0.00000000E+00  0.00000000E+00  0.00000000E+00  0.00000000E+00  0.00000000E+00
  0.00000000E+00  0.00000000E+00
Coordinates of each shell                  R   N=          33
 -8.36834273E-01  2.06378187E+00 -1.63702488E-02 -8.36834273E-01  2.06378187E+00
 -1.63702488E-02 -8.36834273E-01  2.06378187E+00 -1.63702488E-02 -8.36834273E-01
  2.06378187E+00 -1.63702488E-02 -8.36834273E-01  2.06378187E+00 -1.63702488E-02
  9.81412105E-01  2.03277848E+00  2.91021614E-02  9.81412105E-01  2.03277848E+00
  2.91021614E-02  9.81412105E-01  2.03277848E+00  2.91021614E-02 -1.39102229E+00
  1.08775212E+00  1.41516405E+00 -1.39102229E+00  1.08775212E+00  1.41516405E+00
 -1.39102229E+00  1.08775212E+00  1.41516405E+00
Constraint Structure                       R   N=           9
 -8.36834273E-01  2.06378187E+00 -1.63702488E-02  9.81412105E-01  2.03277848E+00
  2.91021614E-02 -1.39102229E+00  1.08775212E+00  1.41516405E+00
Num ILSW                                   I              100
ILSW                                       I   N=         100
           0           0           0           0           2           0
           0           0           0           0         402          -1
           5           0           0           0           2           0
           0           0           1           0           1           0
           1           1           0           0           0           0
           0           0      100000           0          -1           0
           0           0           0           0           0           0
           0           0           0           1           0           0
           0           0           1           0           0           0
           0           0         121          41           0           0
           0           0           5           0           0           0
           0           0           0           0           0           0
           0           0           0           0           0           0
           0           0           0           0           0           0
           0           0           0           0           0           0
           0           0           0           0           0           0
           0           0           0           0
Num RLSW                                   I               41
RLSW                                       R   N=          41
  8.00000000E-01  7.20000000E-01  1.00000000E+00  8.10000000E-01  2.00000000E-01
  0.00000000E+00  0.00000000E+00  1.00000000E+00  0.00000000E+00  0.00000000E+00
  0.00000000E+00  0.00000000E+00  1.00000000E+00  0.00000000E+00  0.00000000E+00
  0.00000000E+00  0.00000000E+00  1.00000000E+00  0.00000000E+00  0.00000000E+00
  0.00000000E+00  0.00000000E+00  1.00000000E+00  0.00000000E+00  0.00000000E+00
  0.00000000E+00  0.00000000E+00  1.00000000E+00  0.00000000E+00  0.00000000E+00
  0.00000000E+00  0.00000000E+00  1.00000000E+00  0.00000000E+00  0.00000000E+00
  0.00000000E+00  0.00000000E+00  0.00000000E+00  1.00000000E+00  1.00000000E+00
  0.00000000E+00
MxBond                                     I                2
NBond                                      I   N=           3
           2           1           1
IBond                                      I   N=           6
           2           3           1           0           1           0
RBond                                      R   N=           6
  1.00000000E+00  1.00000000E+00  1.00000000E+00  0.00000000E+00  1.00000000E+00
  0.00000000E+00
Virial Ratio                               R      2.001163830657618E+00
SCF Energy                                 R     -7.643397622079831E+01
Total Energy                               R     -7.643397622079831E+01
RMS Force                                  R      5.839555476363557E-06
RMS Density                                R      5.470468100014695E-10
External E-field                           R   N=          35
  0.00000000E+00  0.00000000E+00  0.00000000E+00  0.00000000E+00  0.00000000E+00
  0.00000000E+00  0.00000000E+00  0.00000000E+00  0.00000000E+00  0.00000000E+00
  0.00000000E+00  0.00000000E+00  0.00000000E+00  0.00000000E+00  0.00000000E+00
  0.00000000E+00  0.00000000E+00  0.00000000E+00  0.00000000E+00  0.00000000E+00
  0.00000000E+00  0.00000000E+00  0.00000000E+00  0.00000000E+00  0.00000000E+00
  0.00000000E+00  0.00000000E+00  0.00000000E+00  0.00000000E+00  0.00000000E+00
  0.00000000E+00  0.00000000E+00  0.00000000E+00  0.00000000E+00  0.00000000E+00
IOpCl                                      I                0
IROHF                                      I                0
Alpha Orbital Energies                     R   N=          24
 -1.91028603E+01 -1.00659432E+00 -5.31082782E-01 -3.71414497E-01 -2.97903554E-01
  2.51740898E-02  1.01486762E-01  3.78148981E-01  4.11892564E-01  7.63444259E-01
  7.77262785E-01  8.92001267E-01  1.16425272E+00  1.99980613E+00  2.04498336E+00
  2.76672226E+00  2.77803766E+00  2.80820659E+00  3.17341940E+00  3.48394721E+00
  4.75119378E+00  4.85777179E+00  4.99808438E+00  4.97341709E+01
Alpha MO coefficients                      R   N=         576
  5.51303521E-01  4.69942237E-01  8.77211704E-04 -6.98845592E-04  1.02499050E-03
  1.21513051E-02 -1.08802749E-04  8.66794839E-05 -1.27132375E-04 -5.85871936E-03
 -5.04203125E-04  4.01681803E-04 -5.89143045E-04  9.14879742E-07  4.26758685E-06
  4.68566719E-06 -5.26237334E-06 -2.90938497E-06 -7.85951479E-05  8.32715602E-04
  7.32116399E-04 -7.85951439E-05  8.32715544E-04  7.32116357E-04 -1.15734637E-01
 -1.85799651E-01  3.08637827E-02 -2.45881484E-02  3.60632192E-02  5.38581426E-01
  5.79074675E-02 -4.61329471E-02  6.76627913E-02  4.25475130E-01  3.61178268E-02
 -2.87738680E-02  4.22023812E-02 -2.66795010E-04 -2.68500992E-03 -1.33264551E-02
  1.09218297E-02  1.83065578E-03  1.02191251E-01  3.91241241E-02  3.95319919E-03
  1.02191250E-01  3.91241239E-02  3.95320055E-03  1.09756560E-10 -5.45392422E-10
  1.92102103E-01  7.65212138E-02 -1.12232988E-01  6.17463495E-10  2.93662526E-01
  1.16976398E-01 -1.71568257E-01  1.12955657E-10  1.88049050E-01  7.49067366E-02
 -1.09865050E-01 -1.93330960E-02  9.55255039E-03  1.52206107E-02  2.15394828E-02
 -6.51299296E-03  1.58977441E-01  1.75509987E-01  7.84247940E-02 -1.58977442E-01
 -1.75509984E-01 -7.84247989E-02 -4.57252576E-02 -7.41692967E-02 -1.51552679E-01
  1.20736968E-01 -1.77083848E-01  2.23190525E-01 -2.11199871E-01  1.68255899E-01
 -2.46779441E-01  3.10705989E-01 -2.19766617E-01  1.75080735E-01 -2.56789379E-01
 -3.97634255E-03 -1.44098332E-02  1.39928169E-02 -4.09551444E-03  9.82472228E-03
 -8.83367406E-02 -1.03826425E-01 -4.51274955E-02 -8.83367388E-02 -1.03826421E-01
 -4.51275014E-02  2.25177072E-09  4.68576208E-10  1.60514428E-09  2.51882803E-01
  1.71735396E-01 -5.08881876E-09 -2.83460144E-09  3.49858969E-01  2.38536209E-01
 -2.85918403E-09  1.06215764E-08  4.10332518E-01  2.79767497E-01  1.49112655E-02
  7.36781162E-03  6.75708864E-03  8.60902337E-03  1.08063072E-02  1.69576831E-09
 -2.47755784E-08  2.20590871E-08  4.14061182E-09 -1.53302923E-08  2.21379614E-08
 -4.13744529E-02 -6.66599444E-02  6.02247160E-02 -4.79790292E-02  7.03704344E-02
  1.70910893E-01  9.69058926E-02 -7.72016909E-02  1.13231080E-01  8.69819220E-01
  1.53636364E-01 -1.22397006E-01  1.79518609E-01  1.21096385E-03  4.07884843E-03
 -6.83147681E-03  3.26446883E-03 -2.78098753E-03 -4.54271151E-02 -9.34104195E-02
 -7.52205245E-01 -4.54271205E-02 -9.34104151E-02 -7.52205437E-01  3.13966349E-09
  5.50926128E-09 -1.35097755E-01 -5.38143140E-02  7.89289815E-02 -1.27749773E-08
 -1.80162438E-01 -7.17652022E-02  1.05257394E-01 -8.50358446E-08 -4.57206194E-01
 -1.82121720E-01  2.67116341E-01  5.75950452E-03 -2.84579177E-03 -4.53435714E-03
 -6.41680728E-03  1.94027997E-03  3.62644753E-02  7.68215895E-02  1.36851116E+00
 -3.62644702E-02 -7.68215187E-02 -1.36851107E+00 -7.09036811E-09 -1.16103184E-08
 -1.07121018E-01 -4.26701898E-02  6.25839949E-02  3.37701001E-08 -1.59497506E-01
 -6.35336424E-02  9.31842469E-02  1.93944506E-07 -7.55891565E-01 -3.01099045E-01
  4.41619330E-01 -1.33351013E-02  6.58892355E-03  1.04984958E-02  1.48569673E-02
 -4.49237244E-03  1.17637170E-01  1.36212444E+00 -9.76118080E-01 -1.17637214E-01
 -1.36212509E+00  9.76118375E-01  3.23351150E-02  5.42097030E-02 -7.02877797E-02
  5.59959191E-02 -8.21286979E-02 -1.54227185E-01 -1.15962796E-01  9.23836959E-02
 -1.35498275E-01 -9.64537645E-01 -4.69580251E-01  3.74098685E-01 -5.48687363E-01
 -3.98338767E-03 -1.70777630E-02 -7.92128091E-03  1.31167235E-02  1.16437362E-02
  1.08453311E-01  1.57874207E+00 -7.03347177E-01  1.08453261E-01  1.57874149E+00
 -7.03346741E-01 -7.25359218E-09 -8.99075466E-09 -5.81970271E-08 -2.21814325E-01
 -1.51234590E-01  3.42801247E-08 -1.75514767E-07 -6.68855846E-01 -4.56030706E-01
  1.22413250E-07  2.89717794E-07  9.28419624E-01  6.33003202E-01 -5.66756187E-03
 -2.80040236E-03 -2.56827146E-03 -3.27217018E-03 -4.10732561E-03  1.72245596E-09
 -7.91838225E-08 -7.75062975E-08 -1.61307546E-09 -7.33341161E-08 -3.93477694E-08
 -2.52817511E-02 -4.36726095E-02 -1.42351566E-01  1.13406824E-01 -1.66332633E-01
  1.78408295E-01 -4.58949369E-01  3.65629888E-01 -5.36265669E-01  3.49093534E-01
  8.13816332E-01 -6.48340663E-01  9.50914890E-01 -5.56335700E-05  1.57979882E-03
  1.49862072E-02 -1.16660731E-02 -1.07711488E-03 -3.83015594E-02 -3.85199522E-01
 -3.92556655E-02 -3.83015560E-02 -3.85199524E-01 -3.92556873E-02 -1.20715940E-09
 -1.35290048E-09 -2.07385437E-01 -8.26091107E-02  1.21162065E-01  1.17958335E-08
 -6.93726330E-01 -2.76336246E-01  4.05299987E-01 -1.55700992E-08  1.44093137E+00
  5.73975015E-01 -8.41844172E-01  1.95568582E-02 -9.66311267E-03 -1.53967745E-02
 -2.17887810E-02  6.58837475E-03 -2.69437344E-03 -2.68489097E-01 -7.68048810E-01
  2.69437239E-03  2.68489116E-01  7.68048804E-01  1.21485067E-01  2.42337001E-01
 -2.76952784E-02  2.20639097E-02 -3.23609321E-02 -1.79701862E+00 -7.88699262E-02
  6.28330369E-02 -9.21566560E-02  2.87400594E+00  4.52510497E-01 -3.60500018E-01
  5.28742201E-01  3.63395855E-03  1.77565822E-02  2.53003616E-02 -2.61520606E-02
 -1.21065511E-02  1.22031022E-02 -6.99046797E-01 -3.40555973E-01  1.22031082E-02
 -6.99046802E-01 -3.40555949E-01 -1.47066407E-10 -7.16477267E-10  1.28290264E-01
  5.11026556E-02 -7.49518155E-02  1.25207841E-08 -3.25561733E-02 -1.29683076E-02
  1.90204968E-02  1.86817163E-08 -3.58652873E-01 -1.42864410E-01  2.09537985E-01
  2.16236763E-01 -1.06843345E-01 -1.70239460E-01 -2.40914749E-01  7.28465119E-02
 -9.21754624E-01  1.64990234E+00 -7.85116355E-01  9.21754752E-01 -1.64990253E+00
  7.85116423E-01 -9.99241646E-03 -1.04689602E-02  8.26257901E-02 -6.58252044E-02
  9.65452433E-02 -5.40293451E-02  2.37686049E-03 -1.89356635E-03  2.77727369E-03
 -6.26249155E-01 -2.72219237E-01  2.16867962E-01 -3.18078327E-01  2.41581285E-02
  1.19914427E-01  1.83726144E-01 -1.86046914E-01 -8.17584684E-02 -9.88908041E-01
  1.67479114E+00 -5.15117452E-01 -9.88907927E-01  1.67479092E+00 -5.15117349E-01
 -9.03559746E-04 -2.32896648E-03 -2.70647391E-02  2.15615776E-02 -3.16241755E-02
  3.17164458E-02  1.12415876E-02 -8.95579837E-03  1.31353981E-02 -5.48108180E-02
 -2.29415042E-02  1.82767337E-02 -2.68063277E-02  1.91463704E-01  7.21518752E-01
 -4.43994567E-01  1.68590172E-02 -4.91936096E-01  5.64347165E-02 -2.63340925E-02
  1.87678333E-02  5.64347217E-02 -2.63340957E-02  1.87678374E-02 -1.85799558E-09
  6.86183650E-10  2.83927631E-09 -5.08107502E-09  1.29383691E-08 -1.68054075E-09
  2.68569127E-09 -2.23394815E-09 -8.01258253E-09  6.65650142E-09  3.01686836E-09
 -2.77292702E-09  8.78672889E-09 -4.65442577E-01  4.59956558E-01 -2.10916652E-01
 -2.68723368E-01  6.74614772E-01 -1.93590164E-08  1.29844630E-08 -5.03393636E-09
 -1.61646619E-08  8.57965577E-09 -4.47468921E-09 -1.90223177E-09 -4.85006489E-10
 -9.76421302E-09 -2.78975155E-02 -1.90207258E-02  1.13216581E-08  1.25551938E-08
  8.68341588E-03  5.92042576E-03 -1.96925104E-08 -9.80305963E-09 -1.00243611E-02
 -6.83469057E-03  6.57914999E-01  3.25082713E-01  2.98136293E-01  3.79847392E-01
  4.76795824E-01 -2.23731519E-09  1.05279107E-08  1.28760822E-10  6.03664103E-09
  1.53304073E-09  3.64598342E-09 -7.14838694E-03 -1.76294822E-02 -5.01637658E-02
  3.99638026E-02 -5.86145594E-02  2.62640799E-01  5.34549039E-02 -4.25857476E-02
  6.24601432E-02 -5.28153867E-01 -1.68876929E-01  1.34538626E-01 -1.97326626E-01
  4.96886161E-02  2.84980773E-01  6.96208426E-01 -6.32506412E-01 -1.94301821E-01
  4.77815294E-01 -1.07728021E-01  1.10018460E-01  4.77815314E-01 -1.07728033E-01
  1.10018471E-01 -6.24007404E-10  3.06929543E-10 -1.34085645E-01 -5.34111484E-02
  7.83376687E-02  6.22908174E-09  1.65850517E-01  6.60642452E-02 -9.68958549E-02
 -1.65750085E-08 -3.30009626E-01 -1.31454751E-01  1.92803534E-01  5.63003108E-01
 -2.78181778E-01 -4.43242547E-01 -6.27255777E-01  1.89666216E-01  6.56926063E-01
 -3.86154747E-01  3.20195968E-01 -6.56926038E-01  3.86154743E-01 -3.20195961E-01
 -5.45761367E-10  3.34689258E-09 -1.06318350E-08 -1.04217968E+00 -7.10564980E-01
 -1.15966344E-08  1.75673367E-08  1.14993659E+00  7.84034335E-01  3.50667494E-08
 -1.16418135E-08 -4.48276568E-01 -3.05637888E-01 -1.28012134E-02 -6.32520653E-03
 -5.80090497E-03 -7.39078062E-03 -9.27713048E-03  2.26907884E-10 -1.31292044E-08
  1.54414210E-08  4.53717109E-08 -6.26361463E-08 -6.94961259E-09 -4.84437827E-03
 -1.00837249E-02 -7.27853316E-01  5.79856452E-01 -8.50470575E-01  6.82463525E-02
  8.25097686E-01 -6.57327805E-01  9.64097148E-01 -3.02907154E-01 -3.94999338E-01
  3.14682814E-01 -4.61542610E-01 -7.19591138E-03 -3.19845944E-02 -2.37244050E-02
  3.10845872E-02  2.18073034E-02 -2.42091440E-01  3.47810748E-01 -2.08768055E-02
 -2.42091469E-01  3.47810782E-01 -2.08767812E-02 -1.09694222E-09  2.10813482E-10
 -1.03268051E+00 -4.11353835E-01  6.03329231E-01  2.88181378E-09  1.21720626E+00
  4.84857096E-01 -7.11135831E-01 -1.85407217E-08 -6.46310410E-01 -2.57448732E-01
  3.77597868E-01 -6.85274683E-02  3.38596568E-02  5.39504841E-02  7.63481610E-02
 -2.30857475E-02 -3.21232180E-01  3.37800413E-01  1.47243996E-01  3.21232143E-01
 -3.37800364E-01 -1.47244000E-01 -2.24590499E+00  2.32995768E+00  2.58051647E-03
 -2.05580986E-03  3.01524036E-03 -2.48863929E-01 -8.28688957E-03  6.60188782E-03
 -9.68293163E-03  2.47469374E-01  2.98212379E-02 -2.37575850E-02  3.48450422E-02
 -3.49580137E-04 -1.85361581E-03 -3.64158224E-03  3.46371198E-03  1.26380688E-03
  3.52001508E-03 -4.19986213E-02 -3.14605607E-02  3.52001435E-03 -4.19986201E-02
 -3.14605602E-02
Total SCF Density                          R   N=         300
  6.38841755E-01  5.67951351E-01  5.21736602E-01  7.68277307E-03  1.18366286E-02
  1.21649550E-01 -6.12060800E-03 -9.42984724E-03 -8.71524165E-03  1.68965848E-01
  8.97704449E-03  1.38306749E-02  1.27825708E-02  2.48019548E-02  1.49499171E-01
 -1.31677825E-01 -2.21823427E-01 -3.43836050E-02  2.73922682E-02 -4.01760059E-02
  6.80063234E-01  5.79057098E-03  9.70845507E-03  1.80416486E-01 -8.90396258E-03
  1.30593617E-02 -3.19024912E-02  2.68392703E-01 -4.61315384E-03 -7.73440355E-03
 -8.90396177E-03  2.37047208E-01  3.09910841E-02  2.54156509E-02 -7.71098448E-03
  3.33046159E-01  6.76607380E-03  1.13439798E-02  1.30593622E-02  3.09910848E-02
  2.12722778E-01 -3.72769127E-02  1.13096251E-02  3.74820077E-02  3.03627103E-01
 -1.33358507E-01 -2.09702470E-01 -6.79233849E-02  5.41122942E-02 -7.93660300E-02
  5.96856887E-01 -8.19644804E-02  6.52983699E-02 -9.57725423E-02  5.55203244E-01
  1.11816653E-02  1.87046187E-02  1.41090256E-01 -2.60638578E-02  3.82276431E-02
 -5.92071249E-02  2.07458374E-01 -3.32919818E-02  4.88290695E-02 -1.05825226E-01
  1.69929125E-01 -8.90805801E-03 -1.49013459E-02 -2.60638604E-02  2.61867184E-01
  6.00407474E-02  4.71683382E-02 -3.32919877E-02  3.66213313E-01  7.97484959E-02
  8.43074262E-02 -5.08604157E-02  4.10930310E-01  1.30653744E-02  2.18556739E-02
  3.82276402E-02  6.00407534E-02  2.14742132E-01 -6.91813959E-02  4.88290643E-02
  7.97485023E-02  3.03619957E-01 -1.23652967E-01  7.45965464E-02  1.20789267E-01
  3.16124710E-01  4.26402238E-04  6.89845817E-04 -6.23907301E-03  3.60593440E-03
  1.08502574E-02 -2.06232358E-03 -9.70610467E-03  4.59717816E-03  1.56740994E-02
 -2.69798698E-03 -5.54267869E-03  7.96378823E-03  1.46110832E-02  1.22399384E-03
  1.94398948E-03  3.13929324E-03  7.87209609E-03  1.82602932E-03  5.29625153E-03
 -9.32436578E-03  1.13861968E-02  2.78889251E-03  6.98590043E-03 -1.12393029E-02
  9.73233906E-03  2.58635743E-03  9.19751719E-03 -3.36043883E-05  7.20776915E-04
  1.81018105E-03  2.88083059E-03  7.83923467E-04  9.76762780E-03 -7.01263051E-03
 -8.10852024E-03  1.48548011E-03  1.42272866E-02 -1.07088172E-02 -2.64490132E-03
 -1.38851508E-03  1.34922153E-02 -7.87483406E-03 -4.91179163E-04  5.86562654E-05
  1.30143717E-03 -2.15933337E-03 -3.45596748E-03  1.01911010E-02  6.10733684E-03
  3.60307834E-04  9.93630125E-03  1.56455342E-02  8.67720807E-03  2.15526391E-04
  6.74899371E-03  1.06900243E-02  8.22940705E-03  3.10940699E-03 -5.49364364E-04
  5.97754188E-04  3.66317870E-04  1.34824847E-03 -1.32542434E-03 -2.14039036E-03
 -5.36724840E-03  6.72947521E-03  1.82602967E-03  6.35741342E-03 -7.76318624E-03
  9.17486144E-03  2.78889316E-03  7.66303115E-03 -6.63557445E-03  1.12275112E-02
  2.58635845E-03  4.94994321E-04 -2.58169618E-04  1.73933640E-04 -1.34995829E-04
  5.18143660E-04 -1.56623537E-02 -2.49443201E-02  9.41630202E-02 -2.02600347E-03
  2.97152373E-03  7.06428623E-02  1.42520141E-01 -1.96191803E-03  2.87752925E-03
  3.20670836E-02  1.05999978E-01 -1.29960971E-02  1.90612663E-02 -5.49906632E-03
  5.03434575E-03 -3.56387126E-04  9.80438426E-03 -3.43245130E-03  8.70405291E-02
  1.35710557E-03  1.64562492E-03  1.01318519E-01 -1.36056897E-04  1.99527366E-04
 -4.18285800E-03  1.51468644E-01  2.51254006E-03 -3.68515959E-03 -3.12360577E-02
  1.14469454E-01 -1.23131089E-02  1.80594867E-02 -5.98147945E-03  6.13528834E-03
  1.39432577E-03  9.26583879E-03 -4.18308197E-03  8.21437887E-02  8.62301450E-02
  4.01912528E-03  5.91324791E-03  4.40548272E-02  9.09791032E-04 -1.33435825E-03
 -1.58680270E-02  6.55803689E-02  2.79716209E-03 -4.10254082E-03 -2.46873689E-02
  4.96152737E-02 -4.27971076E-03  6.27705384E-03 -2.67561077E-03  2.77765078E-03
  1.01906785E-03  3.83444464E-03 -1.89382037E-03  3.37162276E-02  3.72100724E-02
  1.64062059E-02 -1.56623537E-02 -2.49443196E-02 -2.79965838E-02 -5.06865890E-02
  7.43415773E-02  7.06428617E-02 -4.42227286E-02 -7.63483495E-02  1.11979460E-01
  3.20670838E-02 -1.35822504E-02 -6.06300198E-02  8.89255249E-02  6.79503832E-03
 -1.04021435E-03 -1.00353220E-02 -3.89278323E-03  7.09224622E-04 -1.40547792E-02
 -2.94647267E-02 -1.61548651E-02  8.70405284E-02  1.35710509E-03  1.64562469E-03
 -3.35448315E-02 -5.38569996E-02  7.89915696E-02 -4.18285673E-03 -5.46941802E-02
 -7.96095554E-02  1.16762612E-01 -3.12360553E-02 -1.75484920E-02 -6.49006206E-02
  9.51891430E-02  7.59112638E-03 -5.70983551E-04 -9.29115061E-03 -5.85573833E-03
  3.89299511E-04 -2.94647257E-02 -3.69848768E-02 -1.78472658E-02  8.21437867E-02
  8.62301409E-02  4.01912542E-03  5.91324840E-03 -1.62074442E-02 -2.30948529E-02
  3.38730410E-02 -1.58680284E-02 -2.65413238E-02 -3.38982407E-02  4.97182847E-02
 -2.46873714E-02 -9.37555750E-03 -2.77778951E-02  4.07416337E-02  3.38916575E-03
 -2.18976339E-04 -3.75562553E-03 -2.92247351E-03  1.49300108E-04 -1.61548651E-02
 -1.78472663E-02 -8.19558761E-03  3.37162304E-02  3.72100745E-02  1.64062085E-02
Mulliken Charges                           R   N=           3
 -7.97432580E-01  3.98716289E-01  3.98716291E-01
Optimization MaxStp                        I              100
Optimization Job offset                    I                0
Optimization Num results per geometry      I                2
Optimization Num geometry variables        I                9
Opt point       1 Results for each geome   R   N=           6
 -7.64335094E+01  0.00000000E+00 -7.64339666E+01  0.00000000E+00 -7.64339762E+01
  0.00000000E+00
Opt point       1 Geometries               R   N=          27
 -8.22824553E-01  2.05262053E+00  0.00000000E+00  1.01020980E+00  2.05262053E+00
  0.00000000E+00 -1.43382970E+00  1.07907142E+00  1.42789596E+00 -8.38905349E-01
  2.06543181E+00 -1.87901942E-02  9.77304226E-01  2.02990469E+00  3.33171129E-02
 -1.38484334E+00  1.08897597E+00  1.41336904E+00 -8.36834273E-01  2.06378187E+00
 -1.63702488E-02  9.81412105E-01  2.03277848E+00  2.91021614E-02 -1.39102229E+00
  1.08775212E+00  1.41516405E+00
Opt point       1 Gradient at each geome   R   N=          27
 -3.02398120E-04  2.40303629E-04 -3.52964775E-04  9.01317055E-03  3.40975590E-03
 -5.00105269E-03 -8.71077243E-03 -3.65005952E-03  5.35401747E-03 -1.38204867E-07
 -2.44264844E-08  1.97077514E-08 -1.25084898E-03 -4.98201804E-04  7.30728131E-04
  1.25098718E-03  4.98226231E-04 -7.30747839E-04 -7.89363069E-06  6.09057448E-06
 -9.02824255E-06  7.32272275E-06 -1.64345914E-06  2.43216814E-06  5.70907934E-07
 -4.44711534E-06  6.59607440E-06
Optimization Number of geometries          I   N=           1
           3
ONIOM Charges                              I   N=          16
           0           0           0           0           0           0
           0           0           0           0           0           0
           0           0           0           0
ONIOM Multiplicities                       I   N=          16
           1           0           0           0           0           0
           0           0           0           0           0           0
           0           0           0           0
Atom Layers                                I   N=           3
           1           1           1
Atom Modifiers                             I   N=           3
           0           0           0
Force Field                                I                0
Int Atom Modified Types                    I   N=           3
           0           0           0
Link Atoms                                 I   N=           3
           0           0           0
Atom Modified MM Charges                   R   N=           3
  0.00000000E+00  0.00000000E+00  0.00000000E+00
Link Distances                             R   N=          12
  0.00000000E+00  0.00000000E+00  0.00000000E+00  0.00000000E+00  0.00000000E+00
  0.00000000E+00  0.00000000E+00  0.00000000E+00  0.00000000E+00  0.00000000E+00
  0.00000000E+00  0.00000000E+00
Cartesian Gradient                         R   N=           9
 -7.89542559E-06  6.09200452E-06 -9.03033986E-06  7.32434412E-06 -1.64388572E-06
  2.43279387E-06  5.71081466E-07 -4.44811881E-06  6.59754599E-06
Cartesian Force Constants                  R   N=          45
  5.97459369E-01  6.36872743E-02  1.64231293E-01 -9.34186553E-02 -2.40865484E-01
  3.53287118E-01 -5.07636636E-01 -9.18619803E-03  1.34722691E-02  5.25118278E-01
  2.87046529E-02 -1.58240393E-02  2.31998599E-02  2.47844754E-03  1.64965240E-02
 -4.21013333E-02  2.32001222E-02 -3.40338547E-02 -3.63436785E-03 -2.41877109E-02
  3.54816331E-02 -8.98227336E-02 -5.45010763E-02  7.99463862E-02 -1.74816424E-02
 -3.11831005E-02  4.57357012E-02  1.07304376E-01 -9.23919272E-02 -1.48407254E-01
  2.17665625E-01  6.70775049E-03 -6.72484678E-04  9.87588682E-04  8.56841767E-02
  1.49079739E-01  1.35519989E-01  2.17665362E-01 -3.19253263E-01 -9.83790125E-03
  9.87851014E-04 -1.44777837E-03 -1.25682087E-01 -2.18653213E-01  3.20701042E-01
Dipole Moment                              R   N=           3
  5.13462357E-01 -4.09058371E-01  5.99962269E-01
Dipole Derivatives                         R   N=          27
 -3.75231125E-01 -1.95682250E-02  2.86993307E-02 -1.95682499E-02 -6.65876557E-01
 -2.14910185E-01  2.86994086E-02 -2.14911060E-01 -4.97196140E-01  5.50731183E-02
  2.78044187E-02 -4.07800449E-02  4.45590647E-02  3.74998900E-01  4.57651865E-02
 -6.53543340E-02  4.57651007E-02  3.39079254E-01  3.20158007E-01 -8.23619376E-03
  1.20807142E-02 -2.49908147E-02  2.90877658E-01  1.69144998E-01  3.66549254E-02
  1.69145960E-01  1.58116886E-01
Polarizability                             R   N=           6
  6.81999730E+00  5.83797864E-01  4.17307025E+00 -8.56256493E-01 -1.30507102E+00
  5.19739792E+00
QEq coupling tensors                       R   N=          18
 -1.35307119E+00 -4.55191209E-01  1.20925855E+00  6.67624997E-01  1.35745528E+00
  1.43812639E-01 -4.57642938E-01  4.24194237E-03  2.40810856E-01 -6.22161386E-03
  3.05507045E-02  2.16832082E-01  1.28109436E-01 -1.12419580E-01  5.49275403E-02
  1.64884815E-01  3.03184122E-01 -1.83036976E-01
