 Entering Gaussian System, Link 0=g09
 Input=water.com
 Output=water.log
 Initial command:
 /usr/local/apps/g09.d01/g09/l1.exe "/home/jmgonza4/calculations/tmp/87242/Gau-28599.inp" -scrdir="/home/jmgonza4/calculations/tmp/87242/"
 Entering Link 1 = /usr/local/apps/g09.d01/g09/l1.exe PID=     28600.
  
 Copyright (c) 1988,1990,1992,1993,1995,1998,2003,2009,2013,
            Gaussian, Inc.  All Rights Reserved.
  
 This is part of the Gaussian(R) 09 program.  It is based on
 the Gaussian(R) 03 system (copyright 2003, Gaussian, Inc.),
 the Gaussian(R) 98 system (copyright 1998, Gaussian, Inc.),
 the Gaussian(R) 94 system (copyright 1995, Gaussian, Inc.),
 the Gaussian 92(TM) system (copyright 1992, Gaussian, Inc.),
 the Gaussian 90(TM) system (copyright 1990, Gaussian, Inc.),
 the Gaussian 88(TM) system (copyright 1988, Gaussian, Inc.),
 the Gaussian 86(TM) system (copyright 1986, Carnegie Mellon
 University), and the Gaussian 82(TM) system (copyright 1983,
 Carnegie Mellon University). Gaussian is a federally registered
 trademark of Gaussian, Inc.
  
 This software contains proprietary and confidential information,
 including trade secrets, belonging to Gaussian, Inc.
  
 This software is provided under written license and may be
 used, copied, transmitted, or stored only in accord with that
 written license.
  
 The following legend is applicable only to US Government
 contracts under FAR:
  
                    RESTRICTED RIGHTS LEGEND
  
 Use, reproduction and disclosure by the US Government is
 subject to restrictions as set forth in subparagraphs (a)
 and (c) of the Commercial Computer Software - Restricted
 Rights clause in FAR 52.227-19.
  
 Gaussian, Inc.
 340 Quinnipiac St., Bldg. 40, Wallingford CT 06492
  
  
 ---------------------------------------------------------------
 Warning -- This program may not be used in any manner that
 competes with the business of Gaussian, Inc. or will provide
 assistance to any competitor of Gaussian, Inc.  The licensee
 of this program is prohibited from giving any competitor of
 Gaussian, Inc. access to this program.  By using this program,
 the user acknowledges that Gaussian, Inc. is engaged in the
 business of creating and licensing software in the field of
 computational chemistry and represents and warrants to the
 licensee that it is not a competitor of Gaussian, Inc. and that
 it will not use this program in any manner prohibited above.
 ---------------------------------------------------------------
  

 Cite this work as:
 Gaussian 09, Revision D.01,
 M. J. Frisch, G. W. Trucks, H. B. Schlegel, G. E. Scuseria, 
 M. A. Robb, J. R. Cheeseman, G. Scalmani, V. Barone, B. Mennucci, 
 G. A. Petersson, H. Nakatsuji, M. Caricato, X. Li, H. P. Hratchian, 
 A. F. Izmaylov, J. Bloino, G. Zheng, J. L. Sonnenberg, M. Hada, 
 M. Ehara, K. Toyota, R. Fukuda, J. Hasegawa, M. Ishida, T. Nakajima, 
 Y. Honda, O. Kitao, H. Nakai, T. Vreven, J. A. Montgomery, Jr., 
 J. E. Peralta, F. Ogliaro, M. Bearpark, J. J. Heyd, E. Brothers, 
 K. N. Kudin, V. N. Staroverov, T. Keith, R. Kobayashi, J. Normand, 
 K. Raghavachari, A. Rendell, J. C. Burant, S. S. Iyengar, J. Tomasi, 
 M. Cossi, N. Rega, J. M. Millam, M. Klene, J. E. Knox, J. B. Cross, 
 V. Bakken, C. Adamo, J. Jaramillo, R. Gomperts, R. E. Stratmann, 
 O. Yazyev, A. J. Austin, R. Cammi, C. Pomelli, J. W. Ochterski, 
 R. L. Martin, K. Morokuma, V. G. Zakrzewski, G. A. Voth, 
 P. Salvador, J. J. Dannenberg, S. Dapprich, A. D. Daniels, 
 O. Farkas, J. B. Foresman, J. V. Ortiz, J. Cioslowski, 
 and D. J. Fox, Gaussian, Inc., Wallingford CT, 2013.
 
 ******************************************
 Gaussian 09:  ES64L-G09RevD.01 24-Apr-2013
                22-Sep-2021 
 ******************************************
 %chk=water.chk
 %mem=16GB
 %nprocshared=8
 Will use up to    8 processors via shared memory.
 ----------------------------------------------------------------------
 # p b3lyp/gen empiricaldispersion=gd2 integral=ultrafine scf(maxconven
 tionalcycles=100,xqc) nosymm opt=cartesian freq
 ----------------------------------------------------------------------
 1/10=7,14=-1,18=10,26=4,38=1/1,3;
 2/12=2,15=1,17=6,18=5,29=2,40=1/2;
 3/5=7,11=2,16=1,25=1,30=1,71=1,74=-5,75=-5,124=21/1,2,3;
 4//1;
 5/5=2,8=3,13=1,38=5,85=100/2,8;
 6/7=2,8=2,9=2,10=2,28=1/1;
 7/7=1,29=1,30=1/1,2,3,16;
 1/10=7,14=-1,18=10,26=4/3(2);
 2/15=1,29=1/2;
 99/12=1/99;
 2/15=1,29=1/2;
 3/5=7,6=1,11=2,16=1,25=1,30=1,71=1,74=-5,75=-5,82=7,124=21/1,2,3;
 4/5=5,16=3,69=1/1;
 5/5=2,8=3,13=1,38=5,85=100/2,8;
 7/7=1,30=1/1,2,3,16;
 1/14=-1,18=10,26=4/3(-5);
 2/15=1,29=1/2;
 6/7=2,8=2,9=2,10=2,19=2,28=1/1;
 99/9=1,12=1/99;
 -----
 water
 -----
 Symbolic Z-matrix:
 Charge =  0 Multiplicity = 1
 O                    -0.43542   1.0862    0. 
 H                     0.53458   1.0862    0. 
 H                    -0.75875   0.57102   0.75561 
 

 GradGradGradGradGradGradGradGradGradGradGradGradGradGradGradGradGradGrad
 Berny optimization.
 Initialization pass.
 No Z-matrix variables, so optimization will use Cartesian coordinates.
 Trust Radius=3.00D-01 FncErr=1.00D-07 GrdErr=1.00D-06
 Number of steps in this run=     20 maximum allowed number of steps=    100.
 GradGradGradGradGradGradGradGradGradGradGradGradGradGradGradGradGradGrad

 ---------------------------------------------------------------------------------------------------
                            Z-MATRIX (ANGSTROMS AND DEGREES)
   CD    Cent   Atom    N1       Length/X        N2       Alpha/Y        N3        Beta/Z          J
 ---------------------------------------------------------------------------------------------------
      1      1  O        0  -0.435420          1.086200          0.000000
      2      2  H        0   0.534580          1.086200          0.000000
      3      3  H        0  -0.758750          0.571020          0.755610
 ---------------------------------------------------------------------------------------------------
                         Z-Matrix orientation:                         
 ---------------------------------------------------------------------
 Center     Atomic      Atomic             Coordinates (Angstroms)
 Number     Number       Type             X           Y           Z
 ---------------------------------------------------------------------
      1          8           0       -0.435420    1.086200    0.000000
      2          1           0        0.534580    1.086200    0.000000
      3          1           0       -0.758750    0.571020    0.755610
 ---------------------------------------------------------------------
                    Distance matrix (angstroms):
                    1          2          3
     1  O    0.000000
     2  H    0.970000   0.000000
     3  H    0.970000   1.584001   0.000000
 Symmetry turned off by external request.
 Stoichiometry    H2O
 Framework group  C2V[C2(O),SGV(H2)]
 Deg. of freedom     2
 Full point group                 C2V     NOp   4
 Rotational constants (GHZ):    900.1674139    399.7156078    276.8025730
 General basis read from cards:  (5D, 7F)
    24 basis functions,    42 primitive gaussians,    25 cartesian basis functions
     5 alpha electrons        5 beta electrons
       nuclear repulsion energy         9.0627743895 Hartrees.
 NAtoms=    3 NActive=    3 NUniq=    3 SFac= 1.00D+00 NAtFMM=   60 NAOKFM=F Big=F
 Integral buffers will be    131072 words long.
 Raffenetti 2 integral format.
 Two-electron integral symmetry is turned off.
 Nuclear repulsion after empirical dispersion term =        9.0627183145 Hartrees.
 One-electron integrals computed using PRISM.
 NBasis=    24 RedAO= T EigKep=  4.70D-02  NBF=    24
 NBsUse=    24 1.00D-06 EigRej= -1.00D+00 NBFU=    24
 ExpMin= 1.03D-01 ExpMax= 8.59D+03 ExpMxC= 1.30D+03 IAcc=3 IRadAn=         5 AccDes= 0.00D+00
 Harris functional with IExCor=  402 and IRadAn=       5 diagonalized for initial guess.
 HarFok:  IExCor=  402 AccDes= 0.00D+00 IRadAn=         5 IDoV= 1 UseB2=F ITyADJ=14
 ICtDFT=  3500011 ScaDFX=  1.000000  1.000000  1.000000  1.000000
 FoFCou: FMM=F IPFlag=           0 FMFlag=      100000 FMFlg1=           0
         NFxFlg=           0 DoJE=T BraDBF=F KetDBF=T FulRan=T
         wScrn=  0.000000 ICntrl=     500 IOpCl=  0 I1Cent=   200000004 NGrid=           0
         NMat0=    1 NMatS0=      1 NMatT0=    0 NMatD0=    1 NMtDS0=    0 NMtDT0=    0
 Symmetry not used in FoFCou.
 Keep R1 ints in memory in canonical form, NReq=921487.
 Requested convergence on RMS density matrix=1.00D-08 within 100 cycles.
 Requested convergence on MAX density matrix=1.00D-06.
 Requested convergence on             energy=1.00D-06.
 No special actions if energy rises.
 Integral accuracy reduced to 1.0D-05 until final iterations.
 Initial convergence to 1.0D-05 achieved.  Increase integral accuracy.
 SCF Done:  E(RB3LYP) =  -76.4335094471     A.U. after    9 cycles
            NFock=  9  Conv=0.23D-08     -V/T= 2.0016
 QCSCF skips out because SCF is already converged.

 **********************************************************************

            Population analysis using the SCF density.

 **********************************************************************

 Alpha  occ. eigenvalues --  -19.10198  -1.00037  -0.53377  -0.36414  -0.29631
 Alpha virt. eigenvalues --    0.02442   0.10005   0.38191   0.39789   0.76425
 Alpha virt. eigenvalues --    0.77657   0.89256   1.16072   2.01351   2.03289
 Alpha virt. eigenvalues --    2.77742   2.77806   2.81286   3.17642   3.45451
 Alpha virt. eigenvalues --    4.75248   4.84656   4.99705  49.73344
          Condensed to atoms (all electrons):
               1          2          3
     1  O    8.299161   0.251230   0.251230
     2  H    0.251230   0.383837  -0.035877
     3  H    0.251230  -0.035877   0.383837
 Mulliken charges:
               1
     1  O   -0.801621
     2  H    0.400811
     3  H    0.400811
 Sum of Mulliken charges =   0.00000
 Mulliken charges with hydrogens summed into heavy atoms:
               1
     1  O    0.000000
 Electronic spatial extent (au):  <R**2>=             64.8466
 Charge=              0.0000 electrons
 Dipole moment (field-independent basis, Debye):
    X=              1.2708    Y=             -1.0124    Z=              1.4848  Tot=              2.2010
 Quadrupole moment (field-independent basis, Debye-Ang):
   XX=             -5.7258   YY=             -8.8745   ZZ=             -5.8864
   XY=              2.2848   XZ=             -1.3266   YZ=              0.6078
 Traceless Quadrupole moment (field-independent basis, Debye-Ang):
   XX=              1.1031   YY=             -2.0456   ZZ=              0.9425
   XY=              2.2848   XZ=             -1.3266   YZ=              0.6078
 Octapole moment (field-independent basis, Debye-Ang**2):
  XXX=              7.5721  YYY=            -24.9488  ZZZ=             -0.1417  XYY=              5.9464
  XXY=             -6.7019  XXZ=              0.7079  XZZ=              1.9576  YZZ=             -6.7227
  YYZ=             -0.3742  XYZ=             -0.7726
 Hexadecapole moment (field-independent basis, Debye-Ang**3):
 XXXX=            -12.6062 YYYY=            -56.6977 ZZZZ=             -5.9404 XXXY=              8.3421
 XXXZ=             -0.1720 YYYX=             12.7178 YYYZ=             -1.3363 ZZZX=             -0.0505
 ZZZY=             -0.2762 XXYY=            -10.8901 XXZZ=             -2.7987 YYZZ=             -9.4559
 XXYZ=              0.4025 YYXZ=             -0.2149 ZZXY=              2.4308
 N-N= 9.062718314496D+00 E-N=-1.992795249743D+02  KE= 7.631361349810D+01
 Calling FoFJK, ICntrl=      2127 FMM=F ISym2X=0 I1Cent= 0 IOpClX= 0 NMat=1 NMatS=1 NMatT=0.
 -------------------------------------------------------------------
 Center     Atomic                   Forces (Hartrees/Bohr)
 Number     Number              X              Y              Z
 -------------------------------------------------------------------
      1        8           0.000302398   -0.000240304    0.000352965
      2        1          -0.009013171   -0.003409756    0.005001053
      3        1           0.008710772    0.003650060   -0.005354017
 -------------------------------------------------------------------
 Cartesian Forces:  Max     0.009013171 RMS     0.005120915

 GradGradGradGradGradGradGradGradGradGradGradGradGradGradGradGradGradGrad
 Berny optimization.
 Search for a local minimum.
 Step number   1 out of a maximum of   20
 All quantities printed in internal units (Hartrees-Bohrs-Radians)
 Second derivative matrix not updated -- first step.
 The second derivative matrix:
                          X1        Y1        Z1        X2        Y2
           X1           0.63540
           Y1           0.06078   0.17743
           Z1          -0.08914  -0.26024   0.38169
           X2          -0.53377   0.00000   0.00000   0.53377
           Y2           0.02529  -0.02015   0.02955   0.00000   0.01511
           Z2          -0.03709   0.02955  -0.04334   0.00000  -0.02216
           X3          -0.10163  -0.06078   0.08914   0.00000  -0.02529
           Y3          -0.08607  -0.15728   0.23069   0.00000   0.00504
           Z3           0.12623   0.23069  -0.33834   0.00000  -0.00739
                          Z2        X3        Y3        Z3
           Z2           0.03251
           X3           0.03709   0.10163
           Y3          -0.00739   0.08607   0.15225
           Z3           0.01084  -0.12623  -0.22330   0.32751
 ITU=  0
     Eigenvalues ---    0.14763   0.80279   0.99054
 RFO step:  Lambda=-1.06672489D-03 EMin= 1.47628730D-01
 Linear search not attempted -- first point.
 TrRot= -0.006090  0.004851 -0.007115 -0.000085  0.000000  0.000085
 Variable       Old X    -DE/DX   Delta X   Delta X   Delta X     New X
                                 (Linear)    (Quad)   (Total)
    X1       -0.82282   0.00030   0.00000  -0.00999  -0.01608  -0.83891
    Y1        2.05262  -0.00024   0.00000   0.00796   0.01281   2.06543
    Z1        0.00000   0.00035   0.00000  -0.01167  -0.01879  -0.01879
    X2        1.01021  -0.00901   0.00000  -0.02682  -0.03291   0.97730
    Y2        2.05262  -0.00341   0.00000  -0.02757  -0.02272   2.02990
    Z2        0.00000   0.00500   0.00000   0.04043   0.03332   0.03332
    X3       -1.43383   0.00871   0.00000   0.05508   0.04899  -1.38484
    Y3        1.07907   0.00365   0.00000   0.00505   0.00990   1.08898
    Z3        1.42790  -0.00535   0.00000  -0.00741  -0.01453   1.41337
         Item               Value     Threshold  Converged?
 Maximum Force            0.009013     0.000450     NO 
 RMS     Force            0.005121     0.000300     NO 
 Maximum Displacement     0.048986     0.001800     NO 
 RMS     Displacement     0.026233     0.001200     NO 
 Predicted change in Energy=-5.368436D-04
 GradGradGradGradGradGradGradGradGradGradGradGradGradGradGradGradGradGrad

                          Input orientation:                          
 ---------------------------------------------------------------------
 Center     Atomic      Atomic             Coordinates (Angstroms)
 Number     Number       Type             X           Y           Z
 ---------------------------------------------------------------------
      1          8           0       -0.443930    1.092979   -0.009943
      2          1           0        0.517167    1.074179    0.017631
      3          1           0       -0.732828    0.576261    0.747923
 ---------------------------------------------------------------------
                    Distance matrix (angstroms):
                    1          2          3
     1  O    0.000000
     2  H    0.961676   0.000000
     3  H    0.961676   1.530926   0.000000
 Symmetry turned off by external request.
 Stoichiometry    H2O
 Framework group  CS[SG(H2O)]
 Deg. of freedom     3
 Full point group                 CS      NOp   2
 Rotational constants (GHZ):    833.0917668    427.9110082    282.7028972
 Basis read from rwf:  (5D, 7F)
    24 basis functions,    42 primitive gaussians,    25 cartesian basis functions
     5 alpha electrons        5 beta electrons
       nuclear repulsion energy         9.1499080114 Hartrees.
 NAtoms=    3 NActive=    3 NUniq=    3 SFac= 1.00D+00 NAtFMM=   60 NAOKFM=F Big=F
 Integral buffers will be    131072 words long.
 Raffenetti 2 integral format.
 Two-electron integral symmetry is turned off.
 Nuclear repulsion after empirical dispersion term =        9.1498666501 Hartrees.
 One-electron integrals computed using PRISM.
 NBasis=    24 RedAO= T EigKep=  4.34D-02  NBF=    24
 NBsUse=    24 1.00D-06 EigRej= -1.00D+00 NBFU=    24
 Initial guess from the checkpoint file:  "water.chk"
 B after Tr=    -0.011257    0.008968   -0.013153
         Rot=    1.000000    0.000000    0.000000    0.000000 Ang=   0.00 deg.
 ExpMin= 1.03D-01 ExpMax= 8.59D+03 ExpMxC= 1.30D+03 IAcc=2 IRadAn=         4 AccDes= 0.00D+00
 Harris functional with IExCor=  402 and IRadAn=       4 diagonalized for initial guess.
 HarFok:  IExCor=  402 AccDes= 0.00D+00 IRadAn=         4 IDoV= 1 UseB2=F ITyADJ=14
 ICtDFT=  3500011 ScaDFX=  1.000000  1.000000  1.000000  1.000000
 FoFCou: FMM=F IPFlag=           0 FMFlag=      100000 FMFlg1=           0
         NFxFlg=           0 DoJE=T BraDBF=F KetDBF=T FulRan=T
         wScrn=  0.000000 ICntrl=     500 IOpCl=  0 I1Cent=   200000004 NGrid=           0
         NMat0=    1 NMatS0=      1 NMatT0=    0 NMatD0=    1 NMtDS0=    0 NMtDT0=    0
 Symmetry not used in FoFCou.
 Keep R1 ints in memory in canonical form, NReq=921487.
 Requested convergence on RMS density matrix=1.00D-08 within 100 cycles.
 Requested convergence on MAX density matrix=1.00D-06.
 Requested convergence on             energy=1.00D-06.
 No special actions if energy rises.
 Integral accuracy reduced to 1.0D-05 until final iterations.
 Initial convergence to 1.0D-05 achieved.  Increase integral accuracy.
 SCF Done:  E(RB3LYP) =  -76.4339665605     A.U. after    8 cycles
            NFock=  8  Conv=0.85D-08     -V/T= 2.0011
 QCSCF skips out because SCF is already converged.
 Calling FoFJK, ICntrl=      2127 FMM=F ISym2X=0 I1Cent= 0 IOpClX= 0 NMat=1 NMatS=1 NMatT=0.
 -------------------------------------------------------------------
 Center     Atomic                   Forces (Hartrees/Bohr)
 Number     Number              X              Y              Z
 -------------------------------------------------------------------
      1        8           0.000000138    0.000000024   -0.000000020
      2        1           0.001250849    0.000498202   -0.000730728
      3        1          -0.001250987   -0.000498226    0.000730748
 -------------------------------------------------------------------
 Cartesian Forces:  Max     0.001250987 RMS     0.000722187

 GradGradGradGradGradGradGradGradGradGradGradGradGradGradGradGradGradGrad
 Berny optimization.
 Search for a local minimum.
 Step number   2 out of a maximum of   20
 All quantities printed in internal units (Hartrees-Bohrs-Radians)
 Update second derivatives using D2CorN and points    1    2
 DE= -4.57D-04 DEPred=-5.37D-04 R= 8.51D-01
 TightC=F SS=  1.41D+00  RLast= 7.87D-02 DXNew= 5.0454D-01 2.3609D-01
 Trust test= 8.51D-01 RLast= 7.87D-02 DXMaxT set to 3.00D-01
 The second derivative matrix:
                          X1        Y1        Z1        X2        Y2
           X1           0.63546
           Y1           0.06073   0.17747
           Z1          -0.08907  -0.26029   0.38177
           X2          -0.53204  -0.00137   0.00202   0.54059
           Y2           0.02601  -0.02072   0.03039   0.00375   0.01703
           Z2          -0.03815   0.03040  -0.04458  -0.00550  -0.02499
           X3          -0.10342  -0.05935   0.08706  -0.00854  -0.02976
           Y3          -0.08674  -0.15674   0.22990  -0.00237   0.00369
           Z3           0.12722   0.22990  -0.33719   0.00348  -0.00541
                          Z2        X3        Y3        Z3
           Z2           0.03665
           X3           0.04365   0.11196
           Y3          -0.00541   0.08911   0.15306
           Z3           0.00793  -0.13070  -0.22449   0.32925
 ITU=  1  0
     Eigenvalues ---    0.16927   0.80703   0.98080
 RFO step:  Lambda= 0.00000000D+00 EMin= 1.69265617D-01
 Quartic linear search produced a step of -0.12560.
 TrRot=  0.000019 -0.000015  0.000023  0.000000  0.000000  0.000000
 Variable       Old X    -DE/DX   Delta X   Delta X   Delta X     New X
                                 (Linear)    (Quad)   (Total)
    X1       -0.83891   0.00000   0.00202   0.00003   0.00207  -0.83683
    Y1        2.06543   0.00000  -0.00161  -0.00003  -0.00165   2.06378
    Z1       -0.01879   0.00000   0.00236   0.00004   0.00242  -0.01637
    X2        0.97730   0.00125   0.00413  -0.00004   0.00411   0.98141
    Y2        2.02990   0.00050   0.00285   0.00004   0.00287   2.03278
    Z2        0.03332  -0.00073  -0.00418  -0.00005  -0.00421   0.02910
    X3       -1.38484  -0.00125  -0.00615  -0.00005  -0.00618  -1.39102
    Y3        1.08898  -0.00050  -0.00124   0.00004  -0.00122   1.08775
    Z3        1.41337   0.00073   0.00182  -0.00005   0.00180   1.41516
         Item               Value     Threshold  Converged?
 Maximum Force            0.001251     0.000450     NO 
 RMS     Force            0.000722     0.000300     NO 
 Maximum Displacement     0.006179     0.001800     NO 
 RMS     Displacement     0.003311     0.001200     NO 
 Predicted change in Energy=-9.671982D-06
 GradGradGradGradGradGradGradGradGradGradGradGradGradGradGradGradGradGrad

                          Input orientation:                          
 ---------------------------------------------------------------------
 Center     Atomic      Atomic             Coordinates (Angstroms)
 Number     Number       Type             X           Y           Z
 ---------------------------------------------------------------------
      1          8           0       -0.442834    1.092106   -0.008663
      2          1           0        0.519341    1.075700    0.015400
      3          1           0       -0.736097    0.575614    0.748873
 ---------------------------------------------------------------------
                    Distance matrix (angstroms):
                    1          2          3
     1  O    0.000000
     2  H    0.962615   0.000000
     3  H    0.962615   1.537593   0.000000
 Symmetry turned off by external request.
 Stoichiometry    H2O
 Framework group  CS[SG(H2O)]
 Deg. of freedom     3
 Full point group                 CS      NOp   2
 Rotational constants (GHZ):    841.3016155    424.2082202    282.0104996
 Basis read from rwf:  (5D, 7F)
    24 basis functions,    42 primitive gaussians,    25 cartesian basis functions
     5 alpha electrons        5 beta electrons
       nuclear repulsion energy         9.1398185832 Hartrees.
 NAtoms=    3 NActive=    3 NUniq=    3 SFac= 1.00D+00 NAtFMM=   60 NAOKFM=F Big=F
 Integral buffers will be    131072 words long.
 Raffenetti 2 integral format.
 Two-electron integral symmetry is turned off.
 Nuclear repulsion after empirical dispersion term =        9.1397756301 Hartrees.
 One-electron integrals computed using PRISM.
 NBasis=    24 RedAO= T EigKep=  4.38D-02  NBF=    24
 NBsUse=    24 1.00D-06 EigRej= -1.00D+00 NBFU=    24
 Initial guess from the checkpoint file:  "water.chk"
 B after Tr=     0.001450   -0.001155    0.001694
         Rot=    1.000000    0.000000    0.000000    0.000000 Ang=   0.00 deg.
 Keep R1 ints in memory in canonical form, NReq=921487.
 Requested convergence on RMS density matrix=1.00D-08 within 100 cycles.
 Requested convergence on MAX density matrix=1.00D-06.
 Requested convergence on             energy=1.00D-06.
 No special actions if energy rises.
 SCF Done:  E(RB3LYP) =  -76.4339762208     A.U. after    6 cycles
            NFock=  6  Conv=0.43D-08     -V/T= 2.0012
 QCSCF skips out because SCF is already converged.
 Calling FoFJK, ICntrl=      2127 FMM=F ISym2X=0 I1Cent= 0 IOpClX= 0 NMat=1 NMatS=1 NMatT=0.
 -------------------------------------------------------------------
 Center     Atomic                   Forces (Hartrees/Bohr)
 Number     Number              X              Y              Z
 -------------------------------------------------------------------
      1        8           0.000007894   -0.000006091    0.000009028
      2        1          -0.000007323    0.000001643   -0.000002432
      3        1          -0.000000571    0.000004447   -0.000006596
 -------------------------------------------------------------------
 Cartesian Forces:  Max     0.000009028 RMS     0.000005838

 GradGradGradGradGradGradGradGradGradGradGradGradGradGradGradGradGradGrad
 Berny optimization.
 Search for a local minimum.
 Step number   3 out of a maximum of   20
 All quantities printed in internal units (Hartrees-Bohrs-Radians)
 Update second derivatives using D2CorN and points    2    3
 DE= -9.66D-06 DEPred=-9.67D-06 R= 9.99D-01
 TightC=F SS=  1.41D+00  RLast= 9.93D-03 DXNew= 5.0454D-01 2.9799D-02
 Trust test= 9.99D-01 RLast= 9.93D-03 DXMaxT set to 3.00D-01
 The second derivative matrix:
                          X1        Y1        Z1        X2        Y2
           X1           0.63480
           Y1           0.06126   0.17705
           Z1          -0.08985  -0.25967   0.38086
           X2          -0.53232  -0.00116   0.00169   0.54210
           Y2           0.02551  -0.02032   0.02980   0.00419   0.01691
           Z2          -0.03741   0.02981  -0.04371  -0.00614  -0.02480
           X3          -0.10248  -0.06010   0.08815  -0.00978  -0.02969
           Y3          -0.08676  -0.15673   0.22987  -0.00303   0.00341
           Z3           0.12726   0.22987  -0.33715   0.00445  -0.00501
                          Z2        X3        Y3        Z3
           Z2           0.03637
           X3           0.04355   0.11226
           Y3          -0.00501   0.08979   0.15331
           Z3           0.00734  -0.13170  -0.22486   0.32981
 ITU=  1  1  0
     Eigenvalues ---    0.16844   0.80876   0.98217
 RFO step:  Lambda= 0.00000000D+00 EMin= 1.68437774D-01
 Quartic linear search produced a step of  0.00101.
 TrRot=  0.000004 -0.000003  0.000005  0.000000  0.000000  0.000000
 Variable       Old X    -DE/DX   Delta X   Delta X   Delta X     New X
                                 (Linear)    (Quad)   (Total)
    X1       -0.83683   0.00001   0.00000   0.00001   0.00001  -0.83682
    Y1        2.06378  -0.00001   0.00000  -0.00001  -0.00001   2.06377
    Z1       -0.01637   0.00001   0.00000   0.00001   0.00001  -0.01636
    X2        0.98141  -0.00001   0.00000  -0.00001   0.00000   0.98141
    Y2        2.03278   0.00000   0.00000   0.00001   0.00001   2.03279
    Z2        0.02910   0.00000   0.00000  -0.00001  -0.00001   0.02909
    X3       -1.39102   0.00000  -0.00001  -0.00001  -0.00001  -1.39103
    Y3        1.08775   0.00000   0.00000   0.00001   0.00000   1.08776
    Z3        1.41516  -0.00001   0.00000  -0.00001   0.00000   1.41516
         Item               Value     Threshold  Converged?
 Maximum Force            0.000009     0.000450     YES
 RMS     Force            0.000006     0.000300     YES
 Maximum Displacement     0.000015     0.001800     YES
 RMS     Displacement     0.000010     0.001200     YES
 Predicted change in Energy=-1.973726D-10
 Optimization completed.
    -- Stationary point found.
 GradGradGradGradGradGradGradGradGradGradGradGradGradGradGradGradGradGrad

                          Input orientation:                          
 ---------------------------------------------------------------------
 Center     Atomic      Atomic             Coordinates (Angstroms)
 Number     Number       Type             X           Y           Z
 ---------------------------------------------------------------------
      1          8           0       -0.442834    1.092106   -0.008663
      2          1           0        0.519341    1.075700    0.015400
      3          1           0       -0.736097    0.575614    0.748873
 ---------------------------------------------------------------------
                    Distance matrix (angstroms):
                    1          2          3
     1  O    0.000000
     2  H    0.962615   0.000000
     3  H    0.962615   1.537593   0.000000
 Symmetry turned off by external request.
 Stoichiometry    H2O
 Framework group  CS[SG(H2O)]
 Deg. of freedom     3
 Full point group                 CS      NOp   2
 Rotational constants (GHZ):    841.3016155    424.2082202    282.0104996

 **********************************************************************

            Population analysis using the SCF density.

 **********************************************************************

 Alpha  occ. eigenvalues --  -19.10286  -1.00659  -0.53108  -0.37141  -0.29790
 Alpha virt. eigenvalues --    0.02517   0.10149   0.37815   0.41189   0.76344
 Alpha virt. eigenvalues --    0.77726   0.89200   1.16425   1.99981   2.04498
 Alpha virt. eigenvalues --    2.76672   2.77804   2.80821   3.17342   3.48395
 Alpha virt. eigenvalues --    4.75119   4.85777   4.99808  49.73417
          Condensed to atoms (all electrons):
               1          2          3
     1  O    8.295295   0.251069   0.251069
     2  H    0.251069   0.389638  -0.039423
     3  H    0.251069  -0.039423   0.389638
 Mulliken charges:
               1
     1  O   -0.797433
     2  H    0.398716
     3  H    0.398716
 Sum of Mulliken charges =   0.00000
 Mulliken charges with hydrogens summed into heavy atoms:
               1
     1  O    0.000000
 Electronic spatial extent (au):  <R**2>=             65.2564
 Charge=              0.0000 electrons
 Dipole moment (field-independent basis, Debye):
    X=              1.3051    Y=             -1.0397    Z=              1.5250  Tot=              2.2605
 Quadrupole moment (field-independent basis, Debye-Ang):
   XX=             -5.8470   YY=             -8.9258   ZZ=             -5.8887
   XY=              2.2702   XZ=             -1.2505   YZ=              0.6646
 Traceless Quadrupole moment (field-independent basis, Debye-Ang):
   XX=              1.0401   YY=             -2.0387   ZZ=              0.9985
   XY=              2.2702   XZ=             -1.2505   YZ=              0.6646
 Octapole moment (field-independent basis, Debye-Ang**2):
  XXX=              7.7484  YYY=            -25.1254  ZZZ=             -0.0093  XYY=              5.9398
  XXY=             -6.8242  XXZ=              0.6940  XZZ=              2.0495  YZZ=             -6.7353
  YYZ=             -0.2599  XYZ=             -0.7234
 Hexadecapole moment (field-independent basis, Debye-Ang**3):
 XXXX=            -12.8072 YYYY=            -57.2068 ZZZZ=             -5.9069 XXXY=              8.5384
 XXXZ=             -0.1790 YYYX=             12.8451 YYYZ=             -1.1173 ZZZX=             -0.1001
 ZZZY=             -0.1260 XXYY=            -11.0537 XXZZ=             -2.8689 YYZZ=             -9.4767
 XXYZ=              0.4245 YYXZ=             -0.2072 ZZXY=              2.5176
 N-N= 9.139775630098D+00 E-N=-1.994356034080D+02  KE= 7.634512335558D+01
 1\1\GINC-N2E1-14\FOpt\RB3LYP\Gen\H2O1\JMGONZA4\22-Sep-2021\0\\# p b3ly
 p/gen empiricaldispersion=gd2 integral=ultrafine scf(maxconventionalcy
 cles=100,xqc) nosymm opt=cartesian freq\\water\\0,1\O,-0.4428336246,1.
 09210633,-0.0086627625\H,0.5193409184,1.0757000393,0.0154002005\H,-0.7
 360972938,0.5756136307,0.748872562\\Version=ES64L-G09RevD.01\HF=-76.43
 39762\RMSD=4.285e-09\RMSF=5.838e-06\Dipole=0.5134623,-0.4090584,0.5999
 623\Quadrupole=0.7733259,-1.5156918,0.7423658,1.6878257,-0.9297097,0.4
 94094\PG=CS [SG(H2O1)]\\@


 If your ship doesn't come in, swim out to it!
                          -- Jonathan Winters
 Job cpu time:       0 days  0 hours  1 minutes 41.8 seconds.
 File lengths (MBytes):  RWF=   2000 Int=      0 D2E=      0 Chk=     32 Scr=     32
 Normal termination of Gaussian 09 at Wed Sep 22 20:29:40 2021.
 Link1:  Proceeding to internal job step number  2.
 ------------------------------------------------------------------
 #N Geom=AllCheck Guess=TCheck SCRF=Check GenChk RB3LYP/ChkBas Freq
 ------------------------------------------------------------------
 1/10=4,29=7,30=1,38=1,40=1/1,3;
 2/12=2,15=1,40=1/2;
 3/5=7,6=2,11=2,14=-4,16=1,25=1,30=1,67=1,70=2,71=2,74=-5,75=-5,82=7,116=1,124=21,140=1/1,2,3;
 4/5=101/1;
 5/5=2,8=3,13=1,85=100,98=1/2,8;
 8/6=4,10=90,11=11/1;
 11/6=1,8=1,9=11,15=111,16=1,31=1/1,2,10;
 10/6=1,31=1/2;
 6/7=2,8=2,9=2,10=2,18=1,28=1/1;
 7/8=1,10=1,25=1,30=1/1,2,3,16;
 1/10=4,30=1/3;
 99//99;
 Structure from the checkpoint file:  "water.chk"
 -----
 water
 -----
 Charge =  0 Multiplicity = 1
 No Z-Matrix found in file; cartesian coordinates used.
  O                                                -0.442833624642      1.092106329993     -0.008662762543
  H                                                 0.519340918429      1.075700039299      0.015400200523
  H                                                -0.736097293786      0.575613630708      0.748872562021
 Recover connectivity data from disk.

 GradGradGradGradGradGradGradGradGradGradGradGradGradGradGradGradGradGrad
 Berny optimization.
 Initialization pass.
 Trust Radius=3.00D-01 FncErr=1.00D-07 GrdErr=1.00D-07
 Number of steps in this run=      2 maximum allowed number of steps=      2.
 GradGradGradGradGradGradGradGradGradGradGradGradGradGradGradGradGradGrad

                          Input orientation:                          
 ---------------------------------------------------------------------
 Center     Atomic      Atomic             Coordinates (Angstroms)
 Number     Number       Type             X           Y           Z
 ---------------------------------------------------------------------
      1          8           0       -0.442834    1.092106   -0.008663
      2          1           0        0.519341    1.075700    0.015400
      3          1           0       -0.736097    0.575614    0.748873
 ---------------------------------------------------------------------
                    Distance matrix (angstroms):
                    1          2          3
     1  O    0.000000
     2  H    0.962615   0.000000
     3  H    0.962615   1.537593   0.000000
 Symmetry turned off by external request.
 Stoichiometry    H2O
 Framework group  CS[SG(H2O)]
 Deg. of freedom     3
 Full point group                 CS      NOp   2
 Rotational constants (GHZ):    841.3016155    424.2082202    282.0104996
 Basis read from chk: "water.chk" (5D, 7F)
    24 basis functions,    42 primitive gaussians,    25 cartesian basis functions
     5 alpha electrons        5 beta electrons
       nuclear repulsion energy         9.1398185832 Hartrees.
 NAtoms=    3 NActive=    3 NUniq=    3 SFac= 1.00D+00 NAtFMM=   60 NAOKFM=F Big=F
 Integral buffers will be    131072 words long.
 Raffenetti 2 integral format.
 Two-electron integral symmetry is turned off.
 Nuclear repulsion after empirical dispersion term =        9.1397756301 Hartrees.
 One-electron integrals computed using PRISM.
 NBasis=    24 RedAO= T EigKep=  4.38D-02  NBF=    24
 NBsUse=    24 1.00D-06 EigRej= -1.00D+00 NBFU=    24
 Initial guess from the checkpoint file:  "water.chk"
 B after Tr=     0.000000    0.000000    0.000000
         Rot=    1.000000    0.000000    0.000000    0.000000 Ang=   0.00 deg.
 Keep R1 ints in memory in canonical form, NReq=921487.
 Requested convergence on RMS density matrix=1.00D-08 within 100 cycles.
 Requested convergence on MAX density matrix=1.00D-06.
 Requested convergence on             energy=1.00D-06.
 No special actions if energy rises.
 SCF Done:  E(RB3LYP) =  -76.4339762208     A.U. after    1 cycles
            NFock=  1  Conv=0.55D-09     -V/T= 2.0012
 QCSCF skips out because SCF is already converged.
 DoSCS=F DFT=T ScalE2(SS,OS)=  1.000000  1.000000
 Range of M.O.s used for correlation:     1    24
 NBasis=    24 NAE=     5 NBE=     5 NFC=     0 NFV=     0
 NROrb=     24 NOA=     5 NOB=     5 NVA=    19 NVB=    19
 Symmetrizing basis deriv contribution to polar:
 IMax=3 JMax=2 DiffMx= 0.00D+00
 G2DrvN: will do     4 centers at a time, making    1 passes.
 Calling FoFCou, ICntrl=  3107 FMM=F I1Cent=   0 AccDes= 0.00D+00.
 End of G2Drv F.D. properties file   721 does not exist.
 End of G2Drv F.D. properties file   722 does not exist.
 End of G2Drv F.D. properties file   788 does not exist.
          IDoAtm=111
          Differentiating once with respect to electric field.
                with respect to dipole field.
          Differentiating once with respect to nuclear coordinates.
 Keep R1 ints in memory in canonical form, NReq=905171.
          There are    12 degrees of freedom in the 1st order CPHF.  IDoFFX=6 NUNeed=     3.
      9 vectors produced by pass  0 Test12= 7.92D-16 8.33D-09 XBig12= 3.15D+00 9.79D-01.
 AX will form     9 AO Fock derivatives at one time.
      9 vectors produced by pass  1 Test12= 7.92D-16 8.33D-09 XBig12= 1.24D-01 1.44D-01.
      9 vectors produced by pass  2 Test12= 7.92D-16 8.33D-09 XBig12= 1.03D-03 1.37D-02.
      9 vectors produced by pass  3 Test12= 7.92D-16 8.33D-09 XBig12= 1.98D-06 6.88D-04.
      8 vectors produced by pass  4 Test12= 7.92D-16 8.33D-09 XBig12= 2.06D-09 2.03D-05.
      3 vectors produced by pass  5 Test12= 7.92D-16 8.33D-09 XBig12= 1.39D-12 7.67D-07.
      1 vectors produced by pass  6 Test12= 7.92D-16 8.33D-09 XBig12= 5.03D-16 9.35D-09.
 InvSVY:  IOpt=1 It=  1 EMax= 6.66D-16
 Solved reduced A of dimension    48 with     9 vectors.
 Isotropic polarizability for W=    0.000000        5.40 Bohr**3.
 End of Minotr F.D. properties file   721 does not exist.
 End of Minotr F.D. properties file   722 does not exist.
 End of Minotr F.D. properties file   788 does not exist.

 **********************************************************************

            Population analysis using the SCF density.

 **********************************************************************

 Alpha  occ. eigenvalues --  -19.10286  -1.00659  -0.53108  -0.37141  -0.29790
 Alpha virt. eigenvalues --    0.02517   0.10149   0.37815   0.41189   0.76344
 Alpha virt. eigenvalues --    0.77726   0.89200   1.16425   1.99981   2.04498
 Alpha virt. eigenvalues --    2.76672   2.77804   2.80821   3.17342   3.48395
 Alpha virt. eigenvalues --    4.75119   4.85777   4.99808  49.73417
          Condensed to atoms (all electrons):
               1          2          3
     1  O    8.295295   0.251069   0.251069
     2  H    0.251069   0.389638  -0.039423
     3  H    0.251069  -0.039423   0.389638
 Mulliken charges:
               1
     1  O   -0.797433
     2  H    0.398716
     3  H    0.398716
 Sum of Mulliken charges =   0.00000
 Mulliken charges with hydrogens summed into heavy atoms:
               1
     1  O    0.000000
 APT charges:
               1
     1  O   -0.512768
     2  H    0.256384
     3  H    0.256384
 Sum of APT charges =   0.00000
 APT charges with hydrogens summed into heavy atoms:
               1
     1  O    0.000000
 Electronic spatial extent (au):  <R**2>=             65.2564
 Charge=              0.0000 electrons
 Dipole moment (field-independent basis, Debye):
    X=              1.3051    Y=             -1.0397    Z=              1.5250  Tot=              2.2605
 Quadrupole moment (field-independent basis, Debye-Ang):
   XX=             -5.8470   YY=             -8.9258   ZZ=             -5.8887
   XY=              2.2702   XZ=             -1.2505   YZ=              0.6646
 Traceless Quadrupole moment (field-independent basis, Debye-Ang):
   XX=              1.0401   YY=             -2.0387   ZZ=              0.9985
   XY=              2.2702   XZ=             -1.2505   YZ=              0.6646
 Octapole moment (field-independent basis, Debye-Ang**2):
  XXX=              7.7484  YYY=            -25.1254  ZZZ=             -0.0093  XYY=              5.9398
  XXY=             -6.8242  XXZ=              0.6940  XZZ=              2.0495  YZZ=             -6.7353
  YYZ=             -0.2599  XYZ=             -0.7234
 Hexadecapole moment (field-independent basis, Debye-Ang**3):
 XXXX=            -12.8072 YYYY=            -57.2068 ZZZZ=             -5.9069 XXXY=              8.5384
 XXXZ=             -0.1790 YYYX=             12.8451 YYYZ=             -1.1173 ZZZX=             -0.1001
 ZZZY=             -0.1260 XXYY=            -11.0537 XXZZ=             -2.8689 YYZZ=             -9.4767
 XXYZ=              0.4245 YYXZ=             -0.2072 ZZXY=              2.5176
 N-N= 9.139775630098D+00 E-N=-1.994356035609D+02  KE= 7.634512342560D+01
  Exact polarizability:   6.820   0.584   4.173  -0.856  -1.305   5.197
 Approx polarizability:   8.109   0.744   4.523  -1.092  -1.808   5.942
 Calling FoFJK, ICntrl=    100127 FMM=F ISym2X=0 I1Cent= 0 IOpClX= 0 NMat=1 NMatS=1 NMatT=0.
 Full mass-weighted force constant matrix:
 Low frequencies ---   -3.7168   -0.0010    0.0007    0.0016   11.7772   14.0671
 Low frequencies --- 1704.8281 3762.3952 3878.3540
 Diagonal vibrational polarizability:
        0.2887771       0.1757202       0.3780096
 Harmonic frequencies (cm**-1), IR intensities (KM/Mole), Raman scattering
 activities (A**4/AMU), depolarization ratios for plane and unpolarized
 incident light, reduced masses (AMU), force constants (mDyne/A),
 and normal coordinates:
                      1                      2                      3
                      A                      A                      A
 Frequencies --   1704.8281              3762.3952              3878.3540
 Red. masses --      1.0857                 1.0423                 1.0833
 Frc consts  --      1.8592                 8.6934                 9.6009
 IR Inten    --     88.4016                 0.0880                13.3107
  Atom  AN      X      Y      Z        X      Y      Z        X      Y      Z
     1   8    -0.04   0.03  -0.05    -0.03   0.02  -0.03     0.06   0.02  -0.03
     2   1    -0.01  -0.40   0.58     0.71   0.02  -0.03    -0.71   0.01  -0.02
     3   1     0.67  -0.13   0.19    -0.27  -0.37   0.54    -0.21  -0.38   0.56

 -------------------
 - Thermochemistry -
 -------------------
 Temperature   298.150 Kelvin.  Pressure   1.00000 Atm.
 Atom     1 has atomic number  8 and mass  15.99491
 Atom     2 has atomic number  1 and mass   1.00783
 Atom     3 has atomic number  1 and mass   1.00783
 Molecular mass:    18.01056 amu.
 Principal axes and moments of inertia in atomic units:
                           1         2         3
     Eigenvalues --     2.14518   4.25438   6.39955
           X            0.81650   0.57735   0.00000
           Y            0.32524  -0.45996   0.82623
           Z           -0.47703   0.67461   0.56333
 This molecule is an asymmetric top.
 Rotational symmetry number  1.
 Rotational temperatures (Kelvin)     40.37606    20.35876    13.53435
 Rotational constants (GHZ):         841.30162   424.20822   282.01050
 Zero-point vibrational energy      55899.0 (Joules/Mol)
                                   13.36017 (Kcal/Mol)
 Vibrational temperatures:   2452.86  5413.24  5580.08
          (Kelvin)
 
 Zero-point correction=                           0.021291 (Hartree/Particle)
 Thermal correction to Energy=                    0.024125
 Thermal correction to Enthalpy=                  0.025070
 Thermal correction to Gibbs Free Energy=         0.002996
 Sum of electronic and zero-point Energies=            -76.412685
 Sum of electronic and thermal Energies=               -76.409851
 Sum of electronic and thermal Enthalpies=             -76.408907
 Sum of electronic and thermal Free Energies=          -76.430980
 
                     E (Thermal)             CV                S
                      KCal/Mol        Cal/Mol-Kelvin    Cal/Mol-Kelvin
 Total                   15.139              5.998             46.458
 Electronic               0.000              0.000              0.000
 Translational            0.889              2.981             34.608
 Rotational               0.889              2.981             11.844
 Vibrational             13.361              0.036              0.005
                       Q            Log10(Q)             Ln(Q)
 Total Bot       0.418668D-01         -1.378130         -3.173262
 Total V=0       0.259976D+09          8.414933         19.376100
 Vib (Bot)       0.161084D-09         -9.792947        -22.549094
 Vib (V=0)       0.100027D+01          0.000116          0.000267
 Electronic      0.100000D+01          0.000000          0.000000
 Translational   0.300432D+07          6.477746         14.915562
 Rotational      0.865109D+02          1.937071          4.460270
 -------------------------------------------------------------------
 Center     Atomic                   Forces (Hartrees/Bohr)
 Number     Number              X              Y              Z
 -------------------------------------------------------------------
      1        8           0.000007895   -0.000006092    0.000009030
      2        1          -0.000007324    0.000001644   -0.000002433
      3        1          -0.000000571    0.000004448   -0.000006598
 -------------------------------------------------------------------
 Cartesian Forces:  Max     0.000009030 RMS     0.000005840

 GradGradGradGradGradGradGradGradGradGradGradGradGradGradGradGradGradGrad
 Berny optimization.
 Search for a local minimum.
 Step number   1 out of a maximum of    2
 All quantities printed in internal units (Hartrees-Bohrs-Radians)
 Second derivative matrix not updated -- analytic derivatives used.
 The second derivative matrix:
                          X1        Y1        Z1        X2        Y2
           X1           0.59746
           Y1           0.06369   0.16423
           Z1          -0.09342  -0.24087   0.35329
           X2          -0.50764  -0.00919   0.01347   0.52512
           Y2           0.02870  -0.01582   0.02320   0.00248   0.01650
           Z2          -0.04210   0.02320  -0.03403  -0.00363  -0.02419
           X3          -0.08982  -0.05450   0.07995  -0.01748  -0.03118
           Y3          -0.09239  -0.14841   0.21767   0.00671  -0.00067
           Z3           0.13552   0.21767  -0.31925  -0.00984   0.00099
                          Z2        X3        Y3        Z3
           Z2           0.03548
           X3           0.04574   0.10730
           Y3           0.00099   0.08568   0.14908
           Z3          -0.00145  -0.12568  -0.21865   0.32070
 ITU=  0
     Eigenvalues ---    0.16543   0.74902   0.96425
 Angle between quadratic step and forces=  44.70 degrees.
 Linear search not attempted -- first point.
 TrRot=  0.000005 -0.000004  0.000006  0.000000  0.000000  0.000000
 Variable       Old X    -DE/DX   Delta X   Delta X   Delta X     New X
                                 (Linear)    (Quad)   (Total)
    X1       -0.83683   0.00001   0.00000   0.00001   0.00001  -0.83682
    Y1        2.06378  -0.00001   0.00000  -0.00001  -0.00001   2.06377
    Z1       -0.01637   0.00001   0.00000   0.00001   0.00002  -0.01635
    X2        0.98141  -0.00001   0.00000  -0.00001   0.00000   0.98141
    Y2        2.03278   0.00000   0.00000   0.00001   0.00001   2.03279
    Z2        0.02910   0.00000   0.00000  -0.00002  -0.00001   0.02909
    X3       -1.39102   0.00000   0.00000  -0.00002  -0.00001  -1.39103
    Y3        1.08775   0.00000   0.00000   0.00001   0.00000   1.08776
    Z3        1.41516  -0.00001   0.00000  -0.00001  -0.00001   1.41516
         Item               Value     Threshold  Converged?
 Maximum Force            0.000009     0.000450     YES
 RMS     Force            0.000006     0.000300     YES
 Maximum Displacement     0.000016     0.001800     YES
 RMS     Displacement     0.000010     0.001200     YES
 Predicted change in Energy=-2.169677D-10
 Optimization completed.
    -- Stationary point found.
 GradGradGradGradGradGradGradGradGradGradGradGradGradGradGradGradGradGrad

 1\1\GINC-N2E1-14\Freq\RB3LYP\Gen\H2O1\JMGONZA4\22-Sep-2021\0\\#N Geom=
 AllCheck Guess=TCheck SCRF=Check GenChk RB3LYP/ChkBas Freq\\water\\0,1
 \O,-0.4428336246,1.09210633,-0.0086627625\H,0.5193409184,1.0757000393,
 0.0154002005\H,-0.7360972938,0.5756136307,0.748872562\\Version=ES64L-G
 09RevD.01\HF=-76.4339762\RMSD=5.470e-10\RMSF=5.840e-06\ZeroPoint=0.021
 2908\Thermal=0.0241254\Dipole=0.5134624,-0.4090584,0.5999623\DipoleDer
 iv=-0.3752311,-0.0195682,0.0286993,-0.0195682,-0.6658766,-0.2149102,0.
 0286994,-0.2149111,-0.4971961,0.0550731,0.0278044,-0.04078,0.0445591,0
 .3749989,0.0457652,-0.0653543,0.0457651,0.3390793,0.320158,-0.0082362,
 0.0120807,-0.0249908,0.2908777,0.169145,0.0366549,0.169146,0.1581169\P
 olar=6.8199973,0.5837979,4.1730703,-0.8562565,-1.305071,5.1973979\PG=C
 S [SG(H2O1)]\NImag=0\\0.59745937,0.06368727,0.16423129,-0.09341866,-0.
 24086548,0.35328712,-0.50763664,-0.00918620,0.01347227,0.52511828,0.02
 870465,-0.01582404,0.02319986,0.00247845,0.01649652,-0.04210133,0.0232
 0012,-0.03403385,-0.00363437,-0.02418771,0.03548163,-0.08982273,-0.054
 50108,0.07994639,-0.01748164,-0.03118310,0.04573570,0.10730438,-0.0923
 9193,-0.14840725,0.21766562,0.00670775,-0.00067248,0.00098759,0.085684
 18,0.14907974,0.13551999,0.21766536,-0.31925326,-0.00983790,0.00098785
 ,-0.00144778,-0.12568209,-0.21865321,0.32070104\\-0.00000790,0.0000060
 9,-0.00000903,0.00000732,-0.00000164,0.00000243,0.00000057,-0.00000445
 ,0.00000660\\\@


 THERE IS MUCH PLEASURE TO BE GAINED FROM USELESS KNOWLEDGE

                                       -- BERTRAND RUSSELL
 Job cpu time:       0 days  0 hours  0 minutes 26.5 seconds.
 File lengths (MBytes):  RWF=   2000 Int=      0 D2E=      0 Chk=     32 Scr=     32
 Normal termination of Gaussian 09 at Wed Sep 22 20:29:45 2021.
